   This run of MOLCAS is using the pymolcas driver

                             OPE
                             OPE          NMOL  CASOP  ENMOLC A   SO
                 OPE        NMOLC        AS  OP EN  MO LC     AS  OP
                OPENM       OL CA        SO  PE NM  OL CA     SOP EN
                OP EN      MO   LC       AS  OP ENMOL  CASO   PENMOL
                OP  EN     MO   LC       AS  OP EN     MO     LC ASO
               OP   E  NMOL  C  AS       OP  EN MO     LC     AS  OP
               OP  E   NMO   LC AS        OPEN  MO     LCASOP EN   M
               O  PEN   MO  LCA  SO
            OPE   NMO   L   CAS    OP
        OPENMOL  CASOP     ENMOL   CASOPE
     OPENMOLCA   SOPENMOLCASOPEN   MOLCASOPE
    OPENMOLCAS   OP           EN   MOL    CAS
    OPENMOLCAS       OP  ENM        O     LCA
    OPENMOLCAS    OPEN  MOLCASO     P  E  NMO
    OPENMOLCAS     OP               E  N  MOL
    OPENMOLCA   SO           PENM   O  L  CAS    OPEN    MO    LCAS
    OPENMOLCA   SOP           ENM   O  L  CAS   OP  EN  MOLC  AS   O
    OPENMOLCA   SOPE           NM      O  LCA   S      OP  EN MO
    OPENMOLC                AS         O  PEN   M      OL  CA  SOPE
    OPENMO        LCASOPE  NMOL        C  ASO   P      ENMOLC     AS
    OPE     NMO      LCA  SO     P     E   NM   OL  CA SO  PE N   MO
          OPENMOLCA            SOPE   NMO        LCAS  O    P  ENMO
     OPENMOLCASOPENMOLCASOPENMOLCASOPENMOLCA
        OPENMOLCASOPENMOLCASOPENMOLCASOPE
            OPENMOLCASOPENMOLCASOPENM
               OPENMOLCASOPENMOLCA        version: 25.02
                   OPENMOLCASO
                       OPE                tag: 92-gf4b470f0a

 OpenMolcas is free software; you can redistribute it and/or modify it
 under the terms of the GNU Lesser General Public License version 2.1.
 OpenMolcas is distributed in the hope that it will be useful, but it
 is provided "as is" and without any express or implied warranties.
 For more details see the full text of the license in the file
 LICENSE or in <http://www.gnu.org/licenses/>.

                 Copyright (C) The OpenMolcas Authors
           For the author list and the recommended citation,
                   consult the file CONTRIBUTORS.md

           *************************************************
           * pymolcas version py2.29                       *
           *   build 2ba4516c4d154a59cba941070ba63e2c      *
           *   (after the EMIL interpreter by V. Veryazov) *
           *************************************************

configuration info
------------------
Host name: iftia91.univ.gda.pl (Linux)
C Compiler ID: GNU
C flags: -std=gnu99
Fortran Compiler ID: GNU
Fortran flags: -cpp -fdefault-integer-8 -fmax-stack-var-size=1048576
Definitions: _MOLCAS_;_I8_;_LINUX_
Parallel: OFF (GA=OFF)


   --------------------------------------------------------------------
  |
  |           Project: O2
  |    Submitted from: /scratch/tecumseh/WorkSpace/O2.0.5875
  |      Scratch area: /scratch/tecumseh/WorkSpace/O2.0.5875
  |   Save outputs to: WORKDIR
  |            Molcas: /home/tecumseh/program/OpenMolcas/build
  |
  | Scratch area is NOT empty
  |
  |    MOLCAS_DRIVER = /home/tecumseh/program/OpenMolcas/build/pymolcas
  |    MOLCAS_NPROCS = 1
  |    MOLCAS_SOURCE = /home/tecumseh/program/OpenMolcas/OpenMolcas
  | MOLCAS_STRUCTURE = 0
  |
   --------------------------------------------------------------------

++ ---------   Input file   ---------

>>> COPY $dir/vectors/$Project.$R.1Ag-12S.JobIph $WorkDir/JOBIPH

>>> COPY $dir/vectors/$Project.$R.3Ag-3S.JobIph $WorkDir/JOBIPH01

>>> COPY $dir/vectors/$Project.$R.5Ag-3S.JobIph $WorkDir/JOBIPH02

>>> COPY $dir/vectors/$Project.$R.1B3u-5S.JobIph $WorkDir/JOBIPH03

>>> COPY $dir/vectors/$Project.$R.3B3u-6S.JobIph $WorkDir/JOBIPH04

>>> COPY $dir/vectors/$Project.$R.5B3u-1S.JobIph $WorkDir/JOBIPH05

>>> COPY $dir/vectors/$Project.$R.1B2u-5S.JobIph $WorkDir/JOBIPH06

>>> COPY $dir/vectors/$Project.$R.3B2u-6S.JobIph $WorkDir/JOBIPH07

>>> COPY $dir/vectors/$Project.$R.5B2u-1S.JobIph $WorkDir/JOBIPH08

>>> COPY $dir/vectors/$Project.$R.1B1g-5S.JobIph $WorkDir/JOBIPH09

>>> COPY $dir/vectors/$Project.$R.3B1g-6S.JobIph $WorkDir/JOBIPH10

>>> COPY $dir/vectors/$Project.$R.5B1g-1S.JobIph $WorkDir/JOBIPH11

>>> COPY $dir/vectors/$Project.$R.1B1u-3S.JobIph $WorkDir/JOBIPH12

>>> COPY $dir/vectors/$Project.$R.3B1u-6S.JobIph $WorkDir/JOBIPH13

>>> COPY $dir/vectors/$Project.$R.1B2g-5S.JobIph $WorkDir/JOBIPH14

>>> COPY $dir/vectors/$Project.$R.3B2g-6S.JobIph $WorkDir/JOBIPH15

>>> COPY $dir/vectors/$Project.$R.5B2g-1S.JobIph $WorkDir/JOBIPH16

>>> COPY $dir/vectors/$Project.$R.1B3g-5S.JobIph $WorkDir/JOBIPH17

>>> COPY $dir/vectors/$Project.$R.3B3g-6S.JobIph $WorkDir/JOBIPH18

>>> COPY $dir/vectors/$Project.$R.5B3g-1S.JobIph $WorkDir/JOBIPH19

>>> COPY $dir/vectors/$Project.$R.1Au-5S.JobIph $WorkDir/JOBIPH20

>>> COPY $dir/vectors/$Project.$R.3Au-6S.JobIph $WorkDir/JOBIPH21

>>> COPY $dir/vectors/$Project.$R.5Au-1S.JobIph $WorkDir/JOBIPH22

&RASSI

OMEGa
NROF=23 12 3 3 5 6 1 5 6 1 5 6 1 3 6 5 6 1 5 6 1 5 6 1
1 2 3 4 5 6 7 8 9 10 11 12
1 2 3
1 2 3
1 2 3 4 5
1 2 3 4 5 6
1
1 2 3 4 5
1 2 3 4 5 6
1
1 2 3 4 5
1 2 3 4 5 6
1
1 2 3
1 2 3 4 5 6
1 2 3 4 5
1 2 3 4 5 6
1
1 2 3 4 5
1 2 3 4 5 6
1
1 2 3 4 5
1 2 3 4 5 6
1
EJOB

-- ----------------------------------

>>> COPY /home/tecumseh/project/molecule/O2/OpenMolcas/vectors/O2.0.5875.1Ag-12S.JobIph /scratch/tecumseh/WorkSpace/O2.0.5875/JOBIPH

>>> COPY /home/tecumseh/project/molecule/O2/OpenMolcas/vectors/O2.0.5875.3Ag-3S.JobIph /scratch/tecumseh/WorkSpace/O2.0.5875/JOBIPH01

>>> COPY /home/tecumseh/project/molecule/O2/OpenMolcas/vectors/O2.0.5875.5Ag-3S.JobIph /scratch/tecumseh/WorkSpace/O2.0.5875/JOBIPH02

>>> COPY /home/tecumseh/project/molecule/O2/OpenMolcas/vectors/O2.0.5875.1B3u-5S.JobIph /scratch/tecumseh/WorkSpace/O2.0.5875/JOBIPH03

>>> COPY /home/tecumseh/project/molecule/O2/OpenMolcas/vectors/O2.0.5875.3B3u-6S.JobIph /scratch/tecumseh/WorkSpace/O2.0.5875/JOBIPH04

>>> COPY /home/tecumseh/project/molecule/O2/OpenMolcas/vectors/O2.0.5875.5B3u-1S.JobIph /scratch/tecumseh/WorkSpace/O2.0.5875/JOBIPH05

>>> COPY /home/tecumseh/project/molecule/O2/OpenMolcas/vectors/O2.0.5875.1B2u-5S.JobIph /scratch/tecumseh/WorkSpace/O2.0.5875/JOBIPH06

>>> COPY /home/tecumseh/project/molecule/O2/OpenMolcas/vectors/O2.0.5875.3B2u-6S.JobIph /scratch/tecumseh/WorkSpace/O2.0.5875/JOBIPH07

>>> COPY /home/tecumseh/project/molecule/O2/OpenMolcas/vectors/O2.0.5875.5B2u-1S.JobIph /scratch/tecumseh/WorkSpace/O2.0.5875/JOBIPH08

>>> COPY /home/tecumseh/project/molecule/O2/OpenMolcas/vectors/O2.0.5875.1B1g-5S.JobIph /scratch/tecumseh/WorkSpace/O2.0.5875/JOBIPH09

>>> COPY /home/tecumseh/project/molecule/O2/OpenMolcas/vectors/O2.0.5875.3B1g-6S.JobIph /scratch/tecumseh/WorkSpace/O2.0.5875/JOBIPH10

>>> COPY /home/tecumseh/project/molecule/O2/OpenMolcas/vectors/O2.0.5875.5B1g-1S.JobIph /scratch/tecumseh/WorkSpace/O2.0.5875/JOBIPH11

>>> COPY /home/tecumseh/project/molecule/O2/OpenMolcas/vectors/O2.0.5875.1B1u-3S.JobIph /scratch/tecumseh/WorkSpace/O2.0.5875/JOBIPH12

>>> COPY /home/tecumseh/project/molecule/O2/OpenMolcas/vectors/O2.0.5875.3B1u-6S.JobIph /scratch/tecumseh/WorkSpace/O2.0.5875/JOBIPH13

>>> COPY /home/tecumseh/project/molecule/O2/OpenMolcas/vectors/O2.0.5875.1B2g-5S.JobIph /scratch/tecumseh/WorkSpace/O2.0.5875/JOBIPH14

>>> COPY /home/tecumseh/project/molecule/O2/OpenMolcas/vectors/O2.0.5875.3B2g-6S.JobIph /scratch/tecumseh/WorkSpace/O2.0.5875/JOBIPH15

>>> COPY /home/tecumseh/project/molecule/O2/OpenMolcas/vectors/O2.0.5875.5B2g-1S.JobIph /scratch/tecumseh/WorkSpace/O2.0.5875/JOBIPH16

>>> COPY /home/tecumseh/project/molecule/O2/OpenMolcas/vectors/O2.0.5875.1B3g-5S.JobIph /scratch/tecumseh/WorkSpace/O2.0.5875/JOBIPH17

>>> COPY /home/tecumseh/project/molecule/O2/OpenMolcas/vectors/O2.0.5875.3B3g-6S.JobIph /scratch/tecumseh/WorkSpace/O2.0.5875/JOBIPH18

>>> COPY /home/tecumseh/project/molecule/O2/OpenMolcas/vectors/O2.0.5875.5B3g-1S.JobIph /scratch/tecumseh/WorkSpace/O2.0.5875/JOBIPH19

>>> COPY /home/tecumseh/project/molecule/O2/OpenMolcas/vectors/O2.0.5875.1Au-5S.JobIph /scratch/tecumseh/WorkSpace/O2.0.5875/JOBIPH20

>>> COPY /home/tecumseh/project/molecule/O2/OpenMolcas/vectors/O2.0.5875.3Au-6S.JobIph /scratch/tecumseh/WorkSpace/O2.0.5875/JOBIPH21

>>> COPY /home/tecumseh/project/molecule/O2/OpenMolcas/vectors/O2.0.5875.5Au-1S.JobIph /scratch/tecumseh/WorkSpace/O2.0.5875/JOBIPH22

--- Start Module: rassi at Thu Apr 17 10:49:17 2025 ---

()()()()()()()()()()()()()()()()()()()()()()()()()()()()()()()()()()()()()()()()()()()()()()()()()()

                                               &RASSI

                                   only a single process is used
                       available to each process: 2.0 GB of memory, 1 thread?
                                            pid: 297646
()()()()()()()()()()()()()()()()()()()()()()()()()()()()()()()()()()()()()()()()()()()()()()()()()()


      ********************************************************************************
      *                                                                              *
      *                             General data section                             *
      *                                                                              *
      ********************************************************************************

   Specific data for JOBIPH file JOBIPH
   -------------------------------------

   Header from SEWARD:
                            O2, D2h symmetry, aug-cc-pVTZ                      
        Integrals generated by Gateway/Seward, Wed Apr 16 15:35:58 2025        

   CASSCF title (first line only):
       O2, 1Ag 12S                                                             

  STATE IRREP:                1
  SPIN MULTIPLICITY:          1
  ACTIVE ELECTRONS:          12
  MAX RAS1 HOLES:             0
  MAX RAS3 ELECTRONS:         0
  NR OF CONFIG:              60

   Specific data for JOBIPH file JOBIPH01
   -------------------------------------

   Header from SEWARD:
                            O2, D2h symmetry, aug-cc-pVTZ                      
        Integrals generated by Gateway/Seward, Wed Apr 16 15:35:58 2025        

   CASSCF title (first line only):
       O2, 3Ag  3S                                                             

  STATE IRREP:                1
  SPIN MULTIPLICITY:          3
  ACTIVE ELECTRONS:          12
  MAX RAS1 HOLES:             0
  MAX RAS3 ELECTRONS:         0
  NR OF CONFIG:              42

   Specific data for JOBIPH file JOBIPH02
   -------------------------------------

   Header from SEWARD:
                            O2, D2h symmetry, aug-cc-pVTZ                      
        Integrals generated by Gateway/Seward, Wed Apr 16 15:35:58 2025        

   CASSCF title (first line only):
       O2, 5Ag  3S                                                             

  STATE IRREP:                1
  SPIN MULTIPLICITY:          5
  ACTIVE ELECTRONS:          12
  MAX RAS1 HOLES:             0
  MAX RAS3 ELECTRONS:         0
  NR OF CONFIG:              10

   Specific data for JOBIPH file JOBIPH03
   -------------------------------------

   Header from SEWARD:
                            O2, D2h symmetry, aug-cc-pVTZ                      
        Integrals generated by Gateway/Seward, Thu Apr 17 10:49:08 2025        

   CASSCF title (first line only):
       O2, 1B3u 5S                                                             

  STATE IRREP:                2
  SPIN MULTIPLICITY:          1
  ACTIVE ELECTRONS:          12
  MAX RAS1 HOLES:             0
  MAX RAS3 ELECTRONS:         0
  NR OF CONFIG:              40

   Specific data for JOBIPH file JOBIPH04
   -------------------------------------

   Header from SEWARD:
                            O2, D2h symmetry, aug-cc-pVTZ                      
        Integrals generated by Gateway/Seward, Wed Apr 16 15:35:58 2025        

   CASSCF title (first line only):
       O2, 3B3u 6S                                                             

  STATE IRREP:                2
  SPIN MULTIPLICITY:          3
  ACTIVE ELECTRONS:          12
  MAX RAS1 HOLES:             0
  MAX RAS3 ELECTRONS:         0
  NR OF CONFIG:              48

   Specific data for JOBIPH file JOBIPH05
   -------------------------------------

   Header from SEWARD:
                            O2, D2h symmetry, aug-cc-pVTZ                      
        Integrals generated by Gateway/Seward, Wed Apr 16 15:35:58 2025        

   CASSCF title (first line only):
       O2, 5B3u 1S                                                             

  STATE IRREP:                2
  SPIN MULTIPLICITY:          5
  ACTIVE ELECTRONS:          12
  MAX RAS1 HOLES:             0
  MAX RAS3 ELECTRONS:         0
  NR OF CONFIG:               8

   Specific data for JOBIPH file JOBIPH06
   -------------------------------------

   Header from SEWARD:
                            O2, D2h symmetry, aug-cc-pVTZ                      
        Integrals generated by Gateway/Seward, Thu Apr 17 10:49:08 2025        

   CASSCF title (first line only):
       O2, 1B2u 5S                                                             

  STATE IRREP:                3
  SPIN MULTIPLICITY:          1
  ACTIVE ELECTRONS:          12
  MAX RAS1 HOLES:             0
  MAX RAS3 ELECTRONS:         0
  NR OF CONFIG:              40

   Specific data for JOBIPH file JOBIPH07
   -------------------------------------

   Header from SEWARD:
                            O2, D2h symmetry, aug-cc-pVTZ                      
        Integrals generated by Gateway/Seward, Wed Apr 16 15:35:58 2025        

   CASSCF title (first line only):
       O2, 3B2u 6S                                                             

  STATE IRREP:                3
  SPIN MULTIPLICITY:          3
  ACTIVE ELECTRONS:          12
  MAX RAS1 HOLES:             0
  MAX RAS3 ELECTRONS:         0
  NR OF CONFIG:              48

   Specific data for JOBIPH file JOBIPH08
   -------------------------------------

   Header from SEWARD:
                            O2, D2h symmetry, aug-cc-pVTZ                      
        Integrals generated by Gateway/Seward, Wed Apr 16 15:35:58 2025        

   CASSCF title (first line only):
       O2, 5B2u 1S                                                             

  STATE IRREP:                3
  SPIN MULTIPLICITY:          5
  ACTIVE ELECTRONS:          12
  MAX RAS1 HOLES:             0
  MAX RAS3 ELECTRONS:         0
  NR OF CONFIG:               8

   Specific data for JOBIPH file JOBIPH09
   -------------------------------------

   Header from SEWARD:
                            O2, D2h symmetry, aug-cc-pVTZ                      
        Integrals generated by Gateway/Seward, Wed Apr 16 15:35:58 2025        

   CASSCF title (first line only):
       O2, 1B1g 5S                                                             

  STATE IRREP:                4
  SPIN MULTIPLICITY:          1
  ACTIVE ELECTRONS:          12
  MAX RAS1 HOLES:             0
  MAX RAS3 ELECTRONS:         0
  NR OF CONFIG:              36

   Specific data for JOBIPH file JOBIPH10
   -------------------------------------

   Header from SEWARD:
                            O2, D2h symmetry, aug-cc-pVTZ                      
        Integrals generated by Gateway/Seward, Wed Apr 16 15:35:58 2025        

   CASSCF title (first line only):
       O2, 3B1g 6S                                                             

  STATE IRREP:                4
  SPIN MULTIPLICITY:          3
  ACTIVE ELECTRONS:          12
  MAX RAS1 HOLES:             0
  MAX RAS3 ELECTRONS:         0
  NR OF CONFIG:              48

   Specific data for JOBIPH file JOBIPH11
   -------------------------------------

   Header from SEWARD:
                            O2, D2h symmetry, aug-cc-pVTZ                      
        Integrals generated by Gateway/Seward, Wed Apr 16 15:35:58 2025        

   CASSCF title (first line only):
       O2, 5B1g 1S                                                             

  STATE IRREP:                4
  SPIN MULTIPLICITY:          5
  ACTIVE ELECTRONS:          12
  MAX RAS1 HOLES:             0
  MAX RAS3 ELECTRONS:         0
  NR OF CONFIG:              12

   Specific data for JOBIPH file JOBIPH12
   -------------------------------------

   Header from SEWARD:
                            O2, D2h symmetry, aug-cc-pVTZ                      
        Integrals generated by Gateway/Seward, Thu Apr 17 10:49:08 2025        

   CASSCF title (first line only):
       O2, 1B1u 3S                                                             

  STATE IRREP:                5
  SPIN MULTIPLICITY:          1
  ACTIVE ELECTRONS:          12
  MAX RAS1 HOLES:             0
  MAX RAS3 ELECTRONS:         0
  NR OF CONFIG:              44

   Specific data for JOBIPH file JOBIPH13
   -------------------------------------

   Header from SEWARD:
                            O2, D2h symmetry, aug-cc-pVTZ                      
        Integrals generated by Gateway/Seward, Wed Apr 16 15:35:58 2025        

   CASSCF title (first line only):
       O2, 3B1u 6S                                                             

  STATE IRREP:                5
  SPIN MULTIPLICITY:          3
  ACTIVE ELECTRONS:          12
  MAX RAS1 HOLES:             0
  MAX RAS3 ELECTRONS:         0
  NR OF CONFIG:              48

   Specific data for JOBIPH file JOBIPH14
   -------------------------------------

   Header from SEWARD:
                            O2, D2h symmetry, aug-cc-pVTZ                      
        Integrals generated by Gateway/Seward, Wed Apr 16 15:35:58 2025        

   CASSCF title (first line only):
       O2, 1B2g 5S                                                             

  STATE IRREP:                6
  SPIN MULTIPLICITY:          1
  ACTIVE ELECTRONS:          12
  MAX RAS1 HOLES:             0
  MAX RAS3 ELECTRONS:         0
  NR OF CONFIG:              40

   Specific data for JOBIPH file JOBIPH15
   -------------------------------------

   Header from SEWARD:
                            O2, D2h symmetry, aug-cc-pVTZ                      
        Integrals generated by Gateway/Seward, Wed Apr 16 15:35:58 2025        

   CASSCF title (first line only):
       O2, 3B2g 6S                                                             

  STATE IRREP:                6
  SPIN MULTIPLICITY:          3
  ACTIVE ELECTRONS:          12
  MAX RAS1 HOLES:             0
  MAX RAS3 ELECTRONS:         0
  NR OF CONFIG:              48

   Specific data for JOBIPH file JOBIPH16
   -------------------------------------

   Header from SEWARD:
                            O2, D2h symmetry, aug-cc-pVTZ                      
        Integrals generated by Gateway/Seward, Wed Apr 16 15:35:58 2025        

   CASSCF title (first line only):
       O2, 5B2g 1S                                                             

  STATE IRREP:                6
  SPIN MULTIPLICITY:          5
  ACTIVE ELECTRONS:          12
  MAX RAS1 HOLES:             0
  MAX RAS3 ELECTRONS:         0
  NR OF CONFIG:               8

   Specific data for JOBIPH file JOBIPH17
   -------------------------------------

   Header from SEWARD:
                            O2, D2h symmetry, aug-cc-pVTZ                      
        Integrals generated by Gateway/Seward, Wed Apr 16 15:35:58 2025        

   CASSCF title (first line only):
       O2, 1B3g 5S                                                             

  STATE IRREP:                7
  SPIN MULTIPLICITY:          1
  ACTIVE ELECTRONS:          12
  MAX RAS1 HOLES:             0
  MAX RAS3 ELECTRONS:         0
  NR OF CONFIG:              40

   Specific data for JOBIPH file JOBIPH18
   -------------------------------------

   Header from SEWARD:
                            O2, D2h symmetry, aug-cc-pVTZ                      
        Integrals generated by Gateway/Seward, Wed Apr 16 15:35:58 2025        

   CASSCF title (first line only):
       O2, 3B3g 6S                                                             

  STATE IRREP:                7
  SPIN MULTIPLICITY:          3
  ACTIVE ELECTRONS:          12
  MAX RAS1 HOLES:             0
  MAX RAS3 ELECTRONS:         0
  NR OF CONFIG:              48

   Specific data for JOBIPH file JOBIPH19
   -------------------------------------

   Header from SEWARD:
                            O2, D2h symmetry, aug-cc-pVTZ                      
        Integrals generated by Gateway/Seward, Wed Apr 16 15:35:58 2025        

   CASSCF title (first line only):
       O2, 5B3g 1S                                                             

  STATE IRREP:                7
  SPIN MULTIPLICITY:          5
  ACTIVE ELECTRONS:          12
  MAX RAS1 HOLES:             0
  MAX RAS3 ELECTRONS:         0
  NR OF CONFIG:               8

   Specific data for JOBIPH file JOBIPH20
   -------------------------------------

   Header from SEWARD:
                            O2, D2h symmetry, aug-cc-pVTZ                      
        Integrals generated by Gateway/Seward, Thu Apr 17 10:49:08 2025        

   CASSCF title (first line only):
       O2, 1Au 5S                                                              

  STATE IRREP:                8
  SPIN MULTIPLICITY:          1
  ACTIVE ELECTRONS:          12
  MAX RAS1 HOLES:             0
  MAX RAS3 ELECTRONS:         0
  NR OF CONFIG:              36

   Specific data for JOBIPH file JOBIPH21
   -------------------------------------

   Header from SEWARD:
                            O2, D2h symmetry, aug-cc-pVTZ                      
        Integrals generated by Gateway/Seward, Wed Apr 16 15:35:58 2025        

   CASSCF title (first line only):
       O2, 3Au 6S                                                              

  STATE IRREP:                8
  SPIN MULTIPLICITY:          3
  ACTIVE ELECTRONS:          12
  MAX RAS1 HOLES:             0
  MAX RAS3 ELECTRONS:         0
  NR OF CONFIG:              48

   Specific data for JOBIPH file JOBIPH22
   -------------------------------------

   Header from SEWARD:
                            O2, D2h symmetry, aug-cc-pVTZ                      
        Integrals generated by Gateway/Seward, Wed Apr 16 15:35:58 2025        

   CASSCF title (first line only):
       O2, 5Au 1S                                                              

  STATE IRREP:                8
  SPIN MULTIPLICITY:          5
  ACTIVE ELECTRONS:          12
  MAX RAS1 HOLES:             0
  MAX RAS3 ELECTRONS:         0
  NR OF CONFIG:              12
 ###############################################################################
 ###############################################################################
 ###                                                                         ###
 ###                                                                         ###
 ###    WARNING: EJOB used when HEFF is available, possible                  ###
 ###    extra interaction between states is ignored!                         ###
 ###                                                                         ###
 ###                                                                         ###
 ###############################################################################
 ###############################################################################

   The following data are common to all the states:
   ------------------------------------------------
   (note: frozen counts as inactive, deleted as secondary)

      Nr of irreps: 8

                 Total     No./Irrep 
      Irrep                  1   2   3   4   5   6   7   8
                            ag b3u b2u b1g b1u b2g b3g  au

      INACTIVE       2       1   0   0   0   1   0   0   0
      ACTIVE         8       2   1   1   0   2   1   1   0
      SECONDARY     82      16  10  10   5  16  10  10   5
      BASIS         92      19  11  11   5  19  11  11   5

      RAS1           0       0   0   0   0   0   0   0   0
      RAS2           8       2   1   1   0   2   1   1   0
      RAS3           0       0   0   0   0   0   0   0   0

        MATRIX ELEMENTS WILL BE COMPUTED FOR THE FOLLOWING ONE-ELECTRON OPERATORS, UNLESS ZERO BY SYMMETRY.
   (Herm=Hermitian, Anti=Antihermitian, Sing=Singlet operator, Trip=Triplet operator)
     MLTPL  0   1 (HERMSING)     MLTPL  1   1 (HERMSING)     MLTPL  1   2 (HERMSING)
     MLTPL  1   3 (HERMSING)     MLTPL  2   1 (HERMSING)     MLTPL  2   2 (HERMSING)
     MLTPL  2   3 (HERMSING)     MLTPL  2   4 (HERMSING)     MLTPL  2   5 (HERMSING)
     MLTPL  2   6 (HERMSING)     VELOCITY   1 (ANTISING)     VELOCITY   2 (ANTISING)
     VELOCITY   3 (ANTISING)     ANGMOM     1 (ANTISING)     ANGMOM     2 (ANTISING)
     ANGMOM     3 (ANTISING)     MLTPV  2   1 (ANTISING)     MLTPV  2   2 (ANTISING)
     MLTPV  2   3 (ANTISING)     MLTPV  2   4 (ANTISING)     MLTPV  2   5 (ANTISING)
     MLTPV  2   6 (ANTISING)

       EIGENSTATES OF A SPIN-FREE HAMILTONIAN WILL BE COMPUTED BASED ON:

  a Hamiltonian matrix assumed to be diagonal with energies read from the wavefunction file(s).

  Nr of states:                   99

   State:        1   2   3   4   5   6   7   8   9  10  11  12  13  14  15  16  17  18  19  20
  JobIph:        1   1   1   1   1   1   1   1   1   1   1   1   2   2   2   3   3   3   4   4
 Root nr:        1   2   3   4   5   6   7   8   9  10  11  12   1   2   3   1   2   3   1   2

   State:       21  22  23  24  25  26  27  28  29  30  31  32  33  34  35  36  37  38  39  40
  JobIph:        4   4   4   5   5   5   5   5   5   6   7   7   7   7   7   8   8   8   8   8
 Root nr:        3   4   5   1   2   3   4   5   6   1   1   2   3   4   5   1   2   3   4   5

   State:       41  42  43  44  45  46  47  48  49  50  51  52  53  54  55  56  57  58  59  60
  JobIph:        8   9  10  10  10  10  10  11  11  11  11  11  11  12  13  13  13  14  14  14
 Root nr:        6   1   1   2   3   4   5   1   2   3   4   5   6   1   1   2   3   1   2   3

   State:       61  62  63  64  65  66  67  68  69  70  71  72  73  74  75  76  77  78  79  80
  JobIph:       14  14  14  15  15  15  15  15  16  16  16  16  16  16  17  18  18  18  18  18
 Root nr:        4   5   6   1   2   3   4   5   1   2   3   4   5   6   1   1   2   3   4   5

   State:       81  82  83  84  85  86  87  88  89  90  91  92  93  94  95  96  97  98  99
  JobIph:       19  19  19  19  19  19  20  21  21  21  21  21  22  22  22  22  22  22  23
 Root nr:        1   2   3   4   5   6   1   1   2   3   4   5   1   2   3   4   5   6   1

  HAMILTONIAN MATRIX FOR THE ORIGINAL STATES:

  Diagonal, with energies
   -149.71981158   -149.69892191   -149.03678378   -149.03612295   -148.99672398
   -148.62378809   -148.62317296   -148.55504364   -148.46701684   -148.43338760
   -148.32902821   -148.15977924   -148.68107017   -148.67416491   -148.59495398
   -148.78714047   -148.78234466   -148.21819961   -149.15934158   -149.11861551
   -148.87200113   -148.60527147   -148.54699339   -149.22742172   -149.15822989
   -149.04137136   -148.67479575   -148.63587253   -148.62351266   -148.74336074
   -149.15934158   -149.11861551   -148.87200113   -148.60527147   -148.54699339
   -149.22742172   -149.15822989   -149.04137136   -148.67479575   -148.63587253
   -148.62351266   -148.74336074   -149.71981158   -149.03612295   -148.62378809
   -148.52615369   -148.46701684   -149.75670403   -149.09653608   -148.74110335
   -148.68107017   -148.59495398   -148.58662598   -148.78714047   -149.26175555
   -149.21130145   -148.60370159   -149.50711255   -149.50207741   -148.92077495
   -148.91030351   -148.79617940   -148.38468309   -149.36712047   -148.93655144
   -148.87356055   -148.84771562   -148.73098358   -149.41638517   -148.99246915
   -148.94663304   -148.93356642   -148.91859324   -148.75733469   -149.06850224
   -149.36712047   -148.93655144   -148.87356055   -148.84771562   -148.73098358
   -149.41638517   -148.99246915   -148.94663304   -148.93356642   -148.91859324
   -148.75733469   -149.06850224   -149.51586220   -149.26175555   -148.83304378
   -148.60370159   -148.31338389   -149.50711255   -149.34993686   -148.92077495
   -148.89235075   -148.63621705   -148.37354245   -149.01503671

      OVERLAP MATRIX FOR THE ORIGINAL STATES:

  Diagonal, with elements
      1.00000000      1.00000000      1.00000000      1.00000000      1.00000000
      1.00000000      1.00000000      1.00000000      1.00000000      1.00000000
      1.00000000      1.00000000      1.00000000      1.00000000      1.00000000
      1.00000000      1.00000000      1.00000000      1.00000000      1.00000000
      1.00000000      1.00000000      1.00000000      1.00000000      1.00000000
      1.00000000      1.00000000      1.00000000      1.00000000      1.00000000
      1.00000000      1.00000000      1.00000000      1.00000000      1.00000000
      1.00000000      1.00000000      1.00000000      1.00000000      1.00000000
      1.00000000      1.00000000      1.00000000      1.00000000      1.00000000
      1.00000000      1.00000000      1.00000000      1.00000000      1.00000000
      1.00000000      1.00000000      1.00000000      1.00000000      1.00000000
      1.00000000      1.00000000      1.00000000      1.00000000      1.00000000
      1.00000000      1.00000000      1.00000000      1.00000000      1.00000000
      1.00000000      1.00000000      1.00000000      1.00000000      1.00000000
      1.00000000      1.00000000      1.00000000      1.00000000      1.00000000
      1.00000000      1.00000000      1.00000000      1.00000000      1.00000000
      1.00000000      1.00000000      1.00000000      1.00000000      1.00000000
      1.00000000      1.00000000      1.00000000      1.00000000      1.00000000
      1.00000000      1.00000000      1.00000000      1.00000000      1.00000000
      1.00000000      1.00000000      1.00000000      1.00000000

::    RASSI State    1     Total energy:    -149.71981158284260
::    RASSI State    2     Total energy:    -149.69892190784461
::    RASSI State    3     Total energy:    -149.03678378475576
::    RASSI State    4     Total energy:    -149.03612294583061
::    RASSI State    5     Total energy:    -148.99672398220417
::    RASSI State    6     Total energy:    -148.62378809335121
::    RASSI State    7     Total energy:    -148.62317296437354
::    RASSI State    8     Total energy:    -148.55504363624229
::    RASSI State    9     Total energy:    -148.46701683877600
::    RASSI State   10     Total energy:    -148.43338759822311
::    RASSI State   11     Total energy:    -148.32902821008139
::    RASSI State   12     Total energy:    -148.15977924094844
::    RASSI State   13     Total energy:    -148.68107017464320
::    RASSI State   14     Total energy:    -148.67416491057165
::    RASSI State   15     Total energy:    -148.59495397518623
::    RASSI State   16     Total energy:    -148.78714046895902
::    RASSI State   17     Total energy:    -148.78234466236481
::    RASSI State   18     Total energy:    -148.21819960748653
::    RASSI State   19     Total energy:    -149.15934158325456
::    RASSI State   20     Total energy:    -149.11861550779616
::    RASSI State   21     Total energy:    -148.87200112845258
::    RASSI State   22     Total energy:    -148.60527147084480
::    RASSI State   23     Total energy:    -148.54699338677369
::    RASSI State   24     Total energy:    -149.22742172258643
::    RASSI State   25     Total energy:    -149.15822989010283
::    RASSI State   26     Total energy:    -149.04137135879310
::    RASSI State   27     Total energy:    -148.67479574510313
::    RASSI State   28     Total energy:    -148.63587253220410
::    RASSI State   29     Total energy:    -148.62351266273353
::    RASSI State   30     Total energy:    -148.74336074382742
::    RASSI State   31     Total energy:    -149.15934158325479
::    RASSI State   32     Total energy:    -149.11861550779622
::    RASSI State   33     Total energy:    -148.87200112845278
::    RASSI State   34     Total energy:    -148.60527147084480
::    RASSI State   35     Total energy:    -148.54699338677364
::    RASSI State   36     Total energy:    -149.22742172258637
::    RASSI State   37     Total energy:    -149.15822989010277
::    RASSI State   38     Total energy:    -149.04137135879307
::    RASSI State   39     Total energy:    -148.67479574510321
::    RASSI State   40     Total energy:    -148.63587253220410
::    RASSI State   41     Total energy:    -148.62351266273348
::    RASSI State   42     Total energy:    -148.74336074382740
::    RASSI State   43     Total energy:    -149.71981158284282
::    RASSI State   44     Total energy:    -149.03612294583067
::    RASSI State   45     Total energy:    -148.62378809335115
::    RASSI State   46     Total energy:    -148.52615368603631
::    RASSI State   47     Total energy:    -148.46701683877606
::    RASSI State   48     Total energy:    -149.75670403053195
::    RASSI State   49     Total energy:    -149.09653607872406
::    RASSI State   50     Total energy:    -148.74110335080019
::    RASSI State   51     Total energy:    -148.68107017464322
::    RASSI State   52     Total energy:    -148.59495397518620
::    RASSI State   53     Total energy:    -148.58662597951181
::    RASSI State   54     Total energy:    -148.78714046895900
::    RASSI State   55     Total energy:    -149.26175554539648
::    RASSI State   56     Total energy:    -149.21130145335070
::    RASSI State   57     Total energy:    -148.60370158514820
::    RASSI State   58     Total energy:    -149.50711254525024
::    RASSI State   59     Total energy:    -149.50207740890292
::    RASSI State   60     Total energy:    -148.92077495212934
::    RASSI State   61     Total energy:    -148.91030351463942
::    RASSI State   62     Total energy:    -148.79617940039714
::    RASSI State   63     Total energy:    -148.38468309250752
::    RASSI State   64     Total energy:    -149.36712047308777
::    RASSI State   65     Total energy:    -148.93655144197132
::    RASSI State   66     Total energy:    -148.87356054549909
::    RASSI State   67     Total energy:    -148.84771561707100
::    RASSI State   68     Total energy:    -148.73098358376245
::    RASSI State   69     Total energy:    -149.41638516511804
::    RASSI State   70     Total energy:    -148.99246915408693
::    RASSI State   71     Total energy:    -148.94663304152354
::    RASSI State   72     Total energy:    -148.93356641800756
::    RASSI State   73     Total energy:    -148.91859324354635
::    RASSI State   74     Total energy:    -148.75733468950219
::    RASSI State   75     Total energy:    -149.06850223630289
::    RASSI State   76     Total energy:    -149.36712047308774
::    RASSI State   77     Total energy:    -148.93655144197120
::    RASSI State   78     Total energy:    -148.87356054549900
::    RASSI State   79     Total energy:    -148.84771561707095
::    RASSI State   80     Total energy:    -148.73098358376251
::    RASSI State   81     Total energy:    -149.41638516511804
::    RASSI State   82     Total energy:    -148.99246915408693
::    RASSI State   83     Total energy:    -148.94663304152360
::    RASSI State   84     Total energy:    -148.93356641800762
::    RASSI State   85     Total energy:    -148.91859324354624
::    RASSI State   86     Total energy:    -148.75733468950210
::    RASSI State   87     Total energy:    -149.06850223630292
::    RASSI State   88     Total energy:    -149.51586220239591
::    RASSI State   89     Total energy:    -149.26175554539648
::    RASSI State   90     Total energy:    -148.83304377551306
::    RASSI State   91     Total energy:    -148.60370158514814
::    RASSI State   92     Total energy:    -148.31338389174172
::    RASSI State   93     Total energy:    -149.50711254525010
::    RASSI State   94     Total energy:    -149.34993686004228
::    RASSI State   95     Total energy:    -148.92077495212928
::    RASSI State   96     Total energy:    -148.89235075026332
::    RASSI State   97     Total energy:    -148.63621705031238
::    RASSI State   98     Total energy:    -148.37354244602011
::    RASSI State   99     Total energy:    -149.01503671462535



      ****************************************************************************************************
      *                                                                                                  *
      *                                         Spin-free section                                        *
      *                                                                                                  *
      *                 Note: index according to input order, order according to energy.                 *
      *                                                                                                  *
      ****************************************************************************************************



  SPIN-FREE ENERGIES:
  (Shifted by EMIN (a.u.) =       -149.7567040305)

 SF State       Relative EMIN(au)   Rel lowest level(eV)    D:o, cm**(-1)      L_eff   Abs_M

    48             0.0000000000        0.0000000000              0.0000         1.5     0.0
    43             0.0368924477        1.0038946436           8096.9564         2.3     2.0
     1             0.0368924477        1.0038946436           8096.9564         2.3     2.0
     2             0.0577821227        1.5723316586          12681.7101         1.5     0.0
    88             0.2408418281        6.5536400096          52858.6714         1.2     0.0
    58             0.2495914853        6.7917303097          54778.9992         2.1     2.0
    93             0.2495914853        6.7917303097          54778.9992         2.1     2.0
    59             0.2546266216        6.9287433497          55884.0839         1.1     0.0
    69             0.3403188654        9.2605480936          74691.3575         1.3     1.0
    81             0.3403188654        9.2605480936          74691.3575         1.3     1.0
    64             0.3895835574       10.6011086567          85503.7077         2.4     1.0
    76             0.3895835574       10.6011086567          85503.7077         2.4     1.0
    94             0.4067671705       11.0686985884          89275.0748         1.3     0.0
    55             0.4949484851       13.4682344009         108628.6363         2.1     2.0
    89             0.4949484851       13.4682344009         108628.6363         2.1     2.0
    24             0.5292823079       14.4025053147         116164.0394         1.8     1.0
    36             0.5292823079       14.4025053147         116164.0394         1.8     1.0
    56             0.5454025772       14.8411601872         119702.0296         1.1     0.0
    31             0.5973624473       16.2550602817         131105.9029         1.5     1.0
    19             0.5973624473       16.2550602817         131105.9029         1.5     1.0
    25             0.5984741404       16.2853109934         131349.8914         2.0     1.0
    37             0.5984741404       16.2853109934         131349.8914         2.0     1.0
    32             0.6380885227       17.3632732513         140044.2433         1.2     1.0
    20             0.6380885227       17.3632732513         140044.2433         1.2     1.0
    49             0.6601679518       17.9640851239         144890.1179         0.9     0.0
    87             0.6882017942       18.7269248379         151042.8351         1.4     1.0
    75             0.6882017942       18.7269248379         151042.8351         1.4     1.0
    26             0.7153326717       19.4651936251         156997.3744         1.1     1.0
    38             0.7153326717       19.4651936251         156997.3744         1.1     1.0
     3             0.7199202458       19.5900278741         158004.2306         1.9     0.0
    44             0.7205810847       19.6080102174         158149.2679         1.8     2.0
     4             0.7205810847       19.6080102174         158149.2679         1.8     2.0
    99             0.7416673159       20.1817957992         162777.1608         0.1     0.0
     5             0.7599800483       20.6801106343         166796.3410         1.0     0.0
    70             0.7642348764       20.7958904056         167730.1678         1.5     1.0
    82             0.7642348764       20.7958904056         167730.1678         1.5     1.0
    83             0.8100709890       22.0431545686         177790.0317         2.9     3.0
    71             0.8100709890       22.0431545686         177790.0317         2.9     3.0
    65             0.8201525886       22.3174888680         180002.6870         1.4     1.0
    77             0.8201525886       22.3174888680         180002.6870         1.4     1.0
    84             0.8231376125       22.3987155080         180657.8241         1.2     1.0
    72             0.8231376125       22.3987155080         180657.8241         1.2     1.0
    60             0.8359290784       22.7467890267         183465.2263         1.9     2.0
    95             0.8359290784       22.7467890267         183465.2263         1.9     2.0
    73             0.8381107870       22.8061563416         183944.0560         1.2     1.0
    85             0.8381107870       22.8061563416         183944.0560         1.2     1.0
    61             0.8464005159       23.0317313567         185763.4412         0.9     0.0
    96             0.8643532803       23.5202509624         189703.6176         1.3     0.0
    66             0.8831434850       24.0315584819         193827.5908         3.1     3.0
    78             0.8831434850       24.0315584819         193827.5908         3.1     3.0
    33             0.8847029021       24.0739923814         194169.8433         1.5     1.0
    21             0.8847029021       24.0739923814         194169.8433         1.5     1.0
    67             0.9089884135       24.7348348118         199499.8970         2.0     1.0
    79             0.9089884135       24.7348348118         199499.8970         2.0     1.0
    90             0.9236602550       25.1340759594         202719.9940         1.7     0.0
    62             0.9605246301       26.1372067094         210810.7891         1.5     0.0
    16             0.9695635616       26.3831685640         212794.6053         1.9     2.0
    54             0.9695635616       26.3831685640         212794.6053         1.9     2.0
    17             0.9743593682       26.5136691096         213847.1631         0.8     0.0
    74             0.9993693410       27.1942251412         219336.2177         0.9     1.0
    86             0.9993693410       27.1942251412         219336.2177         0.9     1.0
    30             1.0133432867       27.5744755743         222403.1443         0.6     1.0
    42             1.0133432867       27.5744755743         222403.1443         0.6     1.0
    50             1.0156006797       27.6359023679         222898.5848         0.9     0.0
    80             1.0257204468       27.9112752574         225119.6169         1.4     1.0
    68             1.0257204468       27.9112752574         225119.6169         1.4     1.0
    51             1.0756338559       29.2694883118         236074.3440         2.1     2.0
    13             1.0756338559       29.2694883118         236074.3440         2.1     2.0
    39             1.0819082854       29.4402242375         237451.4221         1.2     1.0
    27             1.0819082854       29.4402242375         237451.4221         1.2     1.0
    14             1.0825391200       29.4573901196         237589.8743         1.2     0.0
    97             1.1204869802       30.4900040023         245918.4669         0.6     0.0
    40             1.1208314983       30.4993788177         245994.0799         2.6     3.0
    28             1.1208314983       30.4993788177         245994.0799         2.6     3.0
     6             1.1329159372       30.8282131509         248646.3077         2.2     2.0
    45             1.1329159372       30.8282131509         248646.3077         2.2     2.0
    29             1.1331913678       30.8357079998         248706.7577         0.9     1.0
    41             1.1331913678       30.8357079998         248706.7577         0.9     1.0
     7             1.1335310662       30.8449516631         248781.3129         1.3     0.0
    22             1.1514325597       31.3320761178         252710.2366         1.2     1.0
    34             1.1514325597       31.3320761178         252710.2366         1.2     1.0
    57             1.1530024454       31.3747948839         253054.7867         1.8     2.0
    91             1.1530024454       31.3747948839         253054.7867         1.8     2.0
    15             1.1617500553       31.6128294773         254974.6651         2.1     2.0
    52             1.1617500553       31.6128294773         254974.6651         2.1     2.0
    53             1.1700780510       31.8394457843         256802.4489         1.1     0.0
     8             1.2016603943       32.6988451255         263733.9721         0.7     0.0
    23             1.2097106438       32.9179035732         265500.7976         2.6     3.0
    35             1.2097106438       32.9179035732         265500.7976         2.6     3.0
    46             1.2305503445       33.4849807192         270074.5832         0.4     0.0
    47             1.2896871918       35.0941763114         283053.6210         2.1     2.0
     9             1.2896871918       35.0941763114         283053.6210         2.1     2.0
    10             1.3233164323       36.0092745652         290434.3862         1.1     0.0
    63             1.3720209380       37.3345916822         301123.7896         0.6     0.0
    98             1.3831615845       37.6377441168         303568.8789         1.1     0.0
    11             1.4276758205       38.8490381843         313338.6244         0.9     0.0
    92             1.4433201388       39.2747417732         316772.1554         1.1     0.0
    18             1.5385044230       41.8648380966         337662.6911         0.4     0.0
    12             1.5969247896       43.4545372551         350484.4795         0.4     0.0

++ Dipole transition strengths (spin-free states):
   -----------------------------------------------
     for osc. strength at least  1.00000000E-05

      From   To        Osc. strength     Einstein coefficients Ax, Ay, Az (sec-1)    Total A (sec-1)
     -----------------------------------------------------------------------------------------------
        48   94       1.67433957E-01  0.00000000E+00  0.00000000E+00  8.90115189E+08  8.90115189E+08
        48   24       3.05898314E-04  0.00000000E+00  2.75335824E+06  0.00000000E+00  2.75335824E+06
        48   36       3.05898314E-04  2.75335824E+06  0.00000000E+00  0.00000000E+00  2.75335824E+06
        48   25       9.83167292E-02  0.00000000E+00  1.13143363E+09  0.00000000E+00  1.13143363E+09
        48   37       9.83167292E-02  1.13143363E+09  0.00000000E+00  0.00000000E+00  1.13143363E+09
        48   26       7.22605999E-02  0.00000000E+00  1.18803318E+09  0.00000000E+00  1.18803318E+09
        48   38       7.22605999E-02  1.18803318E+09  0.00000000E+00  0.00000000E+00  1.18803318E+09
        48   96       6.24825824E-03  0.00000000E+00  0.00000000E+00  1.49986587E+08  1.49986587E+08
        48   39       2.48750080E-04  9.35524155E+06  0.00000000E+00  0.00000000E+00  9.35524155E+06
        48   27       2.48750080E-04  0.00000000E+00  9.35524155E+06  0.00000000E+00  9.35524155E+06
        48   97       1.14702284E+00  0.00000000E+00  0.00000000E+00  4.62696886E+10  4.62696886E+10
        48   29       9.30879554E-04  0.00000000E+00  3.84070446E+07  0.00000000E+00  3.84070446E+07
        48   41       9.30879554E-04  3.84070446E+07  0.00000000E+00  0.00000000E+00  3.84070446E+07
        48   98       5.06265808E-02  0.00000000E+00  0.00000000E+00  3.11196939E+09  3.11196939E+09
        43   89       1.52969526E-01  0.00000000E+00  0.00000000E+00  1.03122403E+09  1.03122403E+09
        43   31       1.26725221E-03  1.27902396E+07  0.00000000E+00  0.00000000E+00  1.27902396E+07
        43   19       1.26725221E-03  0.00000000E+00  1.27902396E+07  0.00000000E+00  1.27902396E+07
        43   32       7.37363418E-02  8.56297634E+08  0.00000000E+00  0.00000000E+00  8.56297634E+08
        43   20       7.37363418E-02  0.00000000E+00  8.56297634E+08  0.00000000E+00  8.56297634E+08
        43   33       1.26297713E-01  2.91678155E+09  0.00000000E+00  0.00000000E+00  2.91678155E+09
        43   21       1.26297713E-01  0.00000000E+00  2.91678155E+09  0.00000000E+00  2.91678155E+09
        43   22       1.07273721E-04  0.00000000E+00  4.28149690E+06  0.00000000E+00  4.28149690E+06
        43   34       1.07273721E-04  4.28149690E+06  0.00000000E+00  0.00000000E+00  4.28149690E+06
        43   91       1.14188572E+00  0.00000000E+00  0.00000000E+00  4.57032960E+10  4.57032960E+10
        43   23       2.44294718E-04  0.00000000E+00  1.07965836E+07  0.00000000E+00  1.07965836E+07
        43   35       2.44294718E-04  1.07965836E+07  0.00000000E+00  0.00000000E+00  1.07965836E+07
         1   55       1.52969526E-01  0.00000000E+00  0.00000000E+00  1.03122403E+09  1.03122403E+09
         1   31       1.26725221E-03  0.00000000E+00  1.27902396E+07  0.00000000E+00  1.27902396E+07
         1   19       1.26725221E-03  1.27902396E+07  0.00000000E+00  0.00000000E+00  1.27902396E+07
         1   32       7.37363418E-02  0.00000000E+00  8.56297634E+08  0.00000000E+00  8.56297634E+08
         1   20       7.37363418E-02  8.56297634E+08  0.00000000E+00  0.00000000E+00  8.56297634E+08
         1   33       1.26297713E-01  0.00000000E+00  2.91678155E+09  0.00000000E+00  2.91678155E+09
         1   21       1.26297713E-01  2.91678155E+09  0.00000000E+00  0.00000000E+00  2.91678155E+09
         1   22       1.07273721E-04  4.28149690E+06  0.00000000E+00  0.00000000E+00  4.28149690E+06
         1   34       1.07273721E-04  0.00000000E+00  4.28149690E+06  0.00000000E+00  4.28149690E+06
         1   57       1.14188572E+00  0.00000000E+00  0.00000000E+00  4.57032960E+10  4.57032960E+10
         1   23       2.44294718E-04  1.07965836E+07  0.00000000E+00  0.00000000E+00  1.07965836E+07
         1   35       2.44294718E-04  0.00000000E+00  1.07965836E+07  0.00000000E+00  1.07965836E+07
         2   56       1.49605341E-01  0.00000000E+00  0.00000000E+00  1.14293574E+09  1.14293574E+09
         2   31       4.16206351E-02  0.00000000E+00  3.89342485E+08  0.00000000E+00  3.89342485E+08
         2   19       4.16206351E-02  3.89342485E+08  0.00000000E+00  0.00000000E+00  3.89342485E+08
         2   32       3.16418164E-02  0.00000000E+00  3.42363147E+08  0.00000000E+00  3.42363147E+08
         2   20       3.16418164E-02  3.42363147E+08  0.00000000E+00  0.00000000E+00  3.42363147E+08
         2   33       8.14442315E-02  0.00000000E+00  1.78936535E+09  0.00000000E+00  1.78936535E+09
         2   21       8.14442315E-02  1.78936535E+09  0.00000000E+00  0.00000000E+00  1.78936535E+09
         2   22       8.39253147E-04  3.22523173E+07  0.00000000E+00  0.00000000E+00  3.22523173E+07
         2   34       8.39253147E-04  0.00000000E+00  3.22523173E+07  0.00000000E+00  3.22523173E+07
        88   64       6.03910663E-03  0.00000000E+00  4.29288480E+06  0.00000000E+00  4.29288480E+06
        88   76       6.03910663E-03  4.29288480E+06  0.00000000E+00  0.00000000E+00  4.29288480E+06
        88   65       3.51801321E-03  0.00000000E+00  3.79342532E+07  0.00000000E+00  3.79342532E+07
        88   77       3.51801321E-03  3.79342532E+07  0.00000000E+00  0.00000000E+00  3.79342532E+07
        88   67       1.75097926E-02  0.00000000E+00  2.51151277E+08  0.00000000E+00  2.51151277E+08
        88   79       1.75097926E-02  2.51151277E+08  0.00000000E+00  0.00000000E+00  2.51151277E+08
        88   80       1.48595106E-01  2.94117174E+09  0.00000000E+00  0.00000000E+00  2.94117174E+09
        88   68       1.48595106E-01  0.00000000E+00  2.94117174E+09  0.00000000E+00  2.94117174E+09
        88   46       9.42538359E-02  0.00000000E+00  0.00000000E+00  2.96636461E+09  2.96636461E+09
        58   69       2.93209337E-03  7.75470748E+05  0.00000000E+00  0.00000000E+00  7.75470748E+05
        58   81       2.93209337E-03  0.00000000E+00  7.75470748E+05  0.00000000E+00  7.75470748E+05
        58   70       2.69903418E-04  2.29684701E+06  0.00000000E+00  0.00000000E+00  2.29684701E+06
        58   82       2.69903418E-04  0.00000000E+00  2.29684701E+06  0.00000000E+00  2.29684701E+06
        58   83       2.65832363E-03  0.00000000E+00  2.68310832E+07  0.00000000E+00  2.68310832E+07
        58   71       2.65832363E-03  2.68310832E+07  0.00000000E+00  0.00000000E+00  2.68310832E+07
        58   84       3.51012867E-03  0.00000000E+00  3.70997192E+07  0.00000000E+00  3.70997192E+07
        58   72       3.51012867E-03  3.70997192E+07  0.00000000E+00  0.00000000E+00  3.70997192E+07
        58   73       5.96856413E-03  6.64205045E+07  0.00000000E+00  0.00000000E+00  6.64205045E+07
        58   85       5.96856413E-03  0.00000000E+00  6.64205045E+07  0.00000000E+00  6.64205045E+07
        58   74       9.32500996E-02  1.68432311E+09  0.00000000E+00  0.00000000E+00  1.68432311E+09
        58   86       9.32500996E-02  0.00000000E+00  1.68432311E+09  0.00000000E+00  1.68432311E+09
        58   13       8.85513283E-03  0.00000000E+00  0.00000000E+00  1.94138027E+08  1.94138027E+08
        58   15       1.17844055E-02  0.00000000E+00  0.00000000E+00  3.15035319E+08  3.15035319E+08
        93   69       2.93209337E-03  0.00000000E+00  7.75470748E+05  0.00000000E+00  7.75470748E+05
        93   81       2.93209337E-03  7.75470748E+05  0.00000000E+00  0.00000000E+00  7.75470748E+05
        93   70       2.69903418E-04  0.00000000E+00  2.29684701E+06  0.00000000E+00  2.29684701E+06
        93   82       2.69903418E-04  2.29684701E+06  0.00000000E+00  0.00000000E+00  2.29684701E+06
        93   83       2.65832363E-03  2.68310832E+07  0.00000000E+00  0.00000000E+00  2.68310832E+07
        93   71       2.65832363E-03  0.00000000E+00  2.68310832E+07  0.00000000E+00  2.68310832E+07
        93   84       3.51012867E-03  3.70997192E+07  0.00000000E+00  0.00000000E+00  3.70997192E+07
        93   72       3.51012867E-03  0.00000000E+00  3.70997192E+07  0.00000000E+00  3.70997192E+07
        93   73       5.96856413E-03  0.00000000E+00  6.64205045E+07  0.00000000E+00  6.64205045E+07
        93   85       5.96856413E-03  6.64205045E+07  0.00000000E+00  0.00000000E+00  6.64205045E+07
        93   74       9.32500996E-02  0.00000000E+00  1.68432311E+09  0.00000000E+00  1.68432311E+09
        93   86       9.32500996E-02  1.68432311E+09  0.00000000E+00  0.00000000E+00  1.68432311E+09
        93   51       8.85513283E-03  0.00000000E+00  0.00000000E+00  1.94138027E+08  1.94138027E+08
        93   52       1.17844055E-02  0.00000000E+00  0.00000000E+00  3.15035319E+08  3.15035319E+08
        59   69       2.79824181E-03  6.60205523E+05  0.00000000E+00  0.00000000E+00  6.60205523E+05
        59   81       2.79824181E-03  0.00000000E+00  6.60205523E+05  0.00000000E+00  6.60205523E+05
        59   70       4.08567740E-03  3.40916376E+07  0.00000000E+00  0.00000000E+00  3.40916376E+07
        59   82       4.08567740E-03  0.00000000E+00  3.40916376E+07  0.00000000E+00  3.40916376E+07
        59   84       9.70858302E-03  0.00000000E+00  1.00819482E+08  0.00000000E+00  1.00819482E+08
        59   72       9.70858302E-03  1.00819482E+08  0.00000000E+00  0.00000000E+00  1.00819482E+08
        59   73       3.06910368E-04  3.35722611E+06  0.00000000E+00  0.00000000E+00  3.35722611E+06
        59   85       3.06910368E-04  0.00000000E+00  3.35722611E+06  0.00000000E+00  3.35722611E+06
        59   74       8.75358436E-02  1.55994518E+09  0.00000000E+00  0.00000000E+00  1.55994518E+09
        59   86       8.75358436E-02  0.00000000E+00  1.55994518E+09  0.00000000E+00  1.55994518E+09
        59   14       7.75876427E-03  0.00000000E+00  0.00000000E+00  1.70872557E+08  1.70872557E+08
        69   94       4.29335049E-04  0.00000000E+00  6.09080987E+04  0.00000000E+00  6.09080987E+04
        69   24       3.18327307E-03  0.00000000E+00  0.00000000E+00  3.65208067E+06  3.65208067E+06
        69   25       8.05298193E-03  0.00000000E+00  0.00000000E+00  1.72436665E+07  1.72436665E+07
        69   26       3.01537195E-01  0.00000000E+00  0.00000000E+00  1.36253067E+09  1.36253067E+09
        69   60       3.22040794E-03  2.54157112E+07  0.00000000E+00  0.00000000E+00  2.54157112E+07
        69   95       3.22040794E-03  0.00000000E+00  2.54157112E+07  0.00000000E+00  2.54157112E+07
        69   61       3.39419198E-03  2.79311276E+07  0.00000000E+00  0.00000000E+00  2.79311276E+07
        69   96       9.84424015E-03  0.00000000E+00  8.68585752E+07  0.00000000E+00  8.68585752E+07
        69   62       1.76538978E-01  2.18184095E+09  0.00000000E+00  0.00000000E+00  2.18184095E+09
        69   27       9.32901388E-04  0.00000000E+00  0.00000000E+00  1.64844201E+07  1.64844201E+07
        69   97       5.90779802E-03  0.00000000E+00  1.15534826E+08  0.00000000E+00  1.15534826E+08
        69   29       1.75171933E-04  0.00000000E+00  0.00000000E+00  3.53819788E+06  3.53819788E+06
        69   98       1.54928019E-05  0.00000000E+00  5.41350420E+05  0.00000000E+00  5.41350420E+05
        81   94       4.29335049E-04  6.09080987E+04  0.00000000E+00  0.00000000E+00  6.09080987E+04
        81   36       3.18327307E-03  0.00000000E+00  0.00000000E+00  3.65208067E+06  3.65208067E+06
        81   37       8.05298193E-03  0.00000000E+00  0.00000000E+00  1.72436665E+07  1.72436665E+07
        81   38       3.01537195E-01  0.00000000E+00  0.00000000E+00  1.36253067E+09  1.36253067E+09
        81   60       3.22040794E-03  0.00000000E+00  2.54157112E+07  0.00000000E+00  2.54157112E+07
        81   95       3.22040794E-03  2.54157112E+07  0.00000000E+00  0.00000000E+00  2.54157112E+07
        81   61       3.39419198E-03  0.00000000E+00  2.79311276E+07  0.00000000E+00  2.79311276E+07
        81   96       9.84424015E-03  8.68585752E+07  0.00000000E+00  0.00000000E+00  8.68585752E+07
        81   62       1.76538978E-01  0.00000000E+00  2.18184095E+09  0.00000000E+00  2.18184095E+09
        81   39       9.32901388E-04  0.00000000E+00  0.00000000E+00  1.64844201E+07  1.64844201E+07
        81   97       5.90779802E-03  1.15534826E+08  0.00000000E+00  0.00000000E+00  1.15534826E+08
        81   41       1.75171933E-04  0.00000000E+00  0.00000000E+00  3.53819788E+06  3.53819788E+06
        81   98       1.54928019E-05  5.41350420E+05  0.00000000E+00  0.00000000E+00  5.41350420E+05
        64   55       2.66711801E-04  9.51360820E+04  0.00000000E+00  0.00000000E+00  9.51360820E+04
        64   89       2.66711801E-04  0.00000000E+00  9.51360820E+04  0.00000000E+00  9.51360820E+04
        64   56       6.89947777E-05  5.38230170E+04  0.00000000E+00  0.00000000E+00  5.38230170E+04
        64   19       5.84521892E-04  0.00000000E+00  0.00000000E+00  8.10801433E+05  8.10801433E+05
        64   20       5.07298622E-04  0.00000000E+00  0.00000000E+00  1.00657168E+06  1.00657168E+06
        64   21       3.57598108E-01  0.00000000E+00  0.00000000E+00  2.81660460E+09  2.81660460E+09
        64   90       1.50993484E-02  0.00000000E+00  1.38380963E+08  0.00000000E+00  1.38380963E+08
        64   22       1.33563987E-03  0.00000000E+00  0.00000000E+00  2.49079545E+07  2.49079545E+07
        64   57       4.11557844E-03  7.70668428E+07  0.00000000E+00  0.00000000E+00  7.70668428E+07
        64   91       4.11557844E-03  0.00000000E+00  7.70668428E+07  0.00000000E+00  7.70668428E+07
        64   92       1.00918694E-04  0.00000000E+00  3.60036571E+06  0.00000000E+00  3.60036571E+06
        76   55       2.66711801E-04  0.00000000E+00  9.51360820E+04  0.00000000E+00  9.51360820E+04
        76   89       2.66711801E-04  9.51360820E+04  0.00000000E+00  0.00000000E+00  9.51360820E+04
        76   56       6.89947777E-05  0.00000000E+00  5.38230170E+04  0.00000000E+00  5.38230170E+04
        76   31       5.84521892E-04  0.00000000E+00  0.00000000E+00  8.10801433E+05  8.10801433E+05
        76   32       5.07298622E-04  0.00000000E+00  0.00000000E+00  1.00657168E+06  1.00657168E+06
        76   33       3.57598108E-01  0.00000000E+00  0.00000000E+00  2.81660460E+09  2.81660460E+09
        76   90       1.50993484E-02  1.38380963E+08  0.00000000E+00  0.00000000E+00  1.38380963E+08
        76   34       1.33563987E-03  0.00000000E+00  0.00000000E+00  2.49079545E+07  2.49079545E+07
        76   57       4.11557844E-03  0.00000000E+00  7.70668428E+07  0.00000000E+00  7.70668428E+07
        76   91       4.11557844E-03  7.70668428E+07  0.00000000E+00  0.00000000E+00  7.70668428E+07
        76   92       1.00918694E-04  3.60036571E+06  0.00000000E+00  0.00000000E+00  3.60036571E+06
        94   49       2.02708494E-01  0.00000000E+00  0.00000000E+00  4.18214156E+08  4.18214156E+08
        94   70       1.45671488E-04  0.00000000E+00  5.98079705E+05  0.00000000E+00  5.98079705E+05
        94   82       1.45671488E-04  5.98079705E+05  0.00000000E+00  0.00000000E+00  5.98079705E+05
        94   84       1.13683816E-03  6.33241411E+06  0.00000000E+00  0.00000000E+00  6.33241411E+06
        94   72       1.13683816E-03  0.00000000E+00  6.33241411E+06  0.00000000E+00  6.33241411E+06
        94   73       3.19882608E-05  0.00000000E+00  1.91226581E+05  0.00000000E+00  1.91226581E+05
        94   85       3.19882608E-05  1.91226581E+05  0.00000000E+00  0.00000000E+00  1.91226581E+05
        94   74       7.53447753E-02  0.00000000E+00  8.50140097E+08  0.00000000E+00  8.50140097E+08
        94   86       7.53447753E-02  8.50140097E+08  0.00000000E+00  0.00000000E+00  8.50140097E+08
        94   50       1.96800328E-05  0.00000000E+00  0.00000000E+00  2.34387149E+05  2.34387149E+05
        94   53       4.16215520E-03  0.00000000E+00  0.00000000E+00  7.79169707E+07  7.79169707E+07
        55    4       1.96613622E-01  0.00000000E+00  0.00000000E+00  3.21608991E+08  3.21608991E+08
        55   65       1.53794044E-04  5.22591612E+05  0.00000000E+00  0.00000000E+00  5.22591612E+05
        55   77       1.53794044E-04  0.00000000E+00  5.22591612E+05  0.00000000E+00  5.22591612E+05
        55   66       1.14033521E-03  5.52132476E+06  0.00000000E+00  0.00000000E+00  5.52132476E+06
        55   78       1.14033521E-03  0.00000000E+00  5.52132476E+06  0.00000000E+00  5.52132476E+06
        55   67       1.62678972E-04  8.96038669E+05  0.00000000E+00  0.00000000E+00  8.96038669E+05
        55   79       1.62678972E-04  0.00000000E+00  8.96038669E+05  0.00000000E+00  8.96038669E+05
        55   80       1.27066956E-02  0.00000000E+00  1.15016317E+08  0.00000000E+00  1.15016317E+08
        55   68       1.27066956E-02  1.15016317E+08  0.00000000E+00  0.00000000E+00  1.15016317E+08
        55    6       5.16537991E-04  0.00000000E+00  0.00000000E+00  6.75476426E+06  6.75476426E+06
        55    9       1.17499724E-01  0.00000000E+00  0.00000000E+00  2.38449525E+09  2.38449525E+09
        55   12       7.31825265E-01  0.00000000E+00  0.00000000E+00  2.85537264E+10  2.85537264E+10
        89   44       1.96613622E-01  0.00000000E+00  0.00000000E+00  3.21608991E+08  3.21608991E+08
        89   65       1.53794044E-04  0.00000000E+00  5.22591612E+05  0.00000000E+00  5.22591612E+05
        89   77       1.53794044E-04  5.22591612E+05  0.00000000E+00  0.00000000E+00  5.22591612E+05
        89   66       1.14033521E-03  0.00000000E+00  5.52132476E+06  0.00000000E+00  5.52132476E+06
        89   78       1.14033521E-03  5.52132476E+06  0.00000000E+00  0.00000000E+00  5.52132476E+06
        89   67       1.62678972E-04  0.00000000E+00  8.96038669E+05  0.00000000E+00  8.96038669E+05
        89   79       1.62678972E-04  8.96038669E+05  0.00000000E+00  0.00000000E+00  8.96038669E+05
        89   80       1.27066956E-02  1.15016317E+08  0.00000000E+00  0.00000000E+00  1.15016317E+08
        89   68       1.27066956E-02  0.00000000E+00  1.15016317E+08  0.00000000E+00  1.15016317E+08
        89   45       5.16537991E-04  0.00000000E+00  0.00000000E+00  6.75476426E+06  6.75476426E+06
        89   47       1.17499724E-01  0.00000000E+00  0.00000000E+00  2.38449525E+09  2.38449525E+09
        24   70       4.12860781E-03  0.00000000E+00  0.00000000E+00  7.32276179E+06  7.32276179E+06
        24   72       4.26146165E-05  0.00000000E+00  0.00000000E+00  1.18232409E+05  1.18232409E+05
        24   73       4.73284358E-04  0.00000000E+00  0.00000000E+00  1.45033297E+06  1.45033297E+06
        24   74       7.95441196E-04  0.00000000E+00  0.00000000E+00  5.64775054E+06  5.64775054E+06
        24   50       6.02998911E-03  0.00000000E+00  4.58214432E+07  0.00000000E+00  4.58214432E+07
        24   51       7.92194690E-03  0.00000000E+00  7.59778790E+07  0.00000000E+00  7.59778790E+07
        24   13       7.92194690E-03  7.59778790E+07  0.00000000E+00  0.00000000E+00  7.59778790E+07
        24   14       3.12608009E-03  3.07442939E+07  0.00000000E+00  0.00000000E+00  3.07442939E+07
        24   15       4.03027920E-02  5.17991679E+08  0.00000000E+00  0.00000000E+00  5.17991679E+08
        24   52       4.03027920E-02  0.00000000E+00  5.17991679E+08  0.00000000E+00  5.17991679E+08
        24   53       2.84230132E-02  0.00000000E+00  3.74990475E+08  0.00000000E+00  3.74990475E+08
        36   82       4.12860781E-03  0.00000000E+00  0.00000000E+00  7.32276179E+06  7.32276179E+06
        36   84       4.26146165E-05  0.00000000E+00  0.00000000E+00  1.18232409E+05  1.18232409E+05
        36   85       4.73284358E-04  0.00000000E+00  0.00000000E+00  1.45033297E+06  1.45033297E+06
        36   86       7.95441196E-04  0.00000000E+00  0.00000000E+00  5.64775054E+06  5.64775054E+06
        36   50       6.02998911E-03  4.58214432E+07  0.00000000E+00  0.00000000E+00  4.58214432E+07
        36   51       7.92194690E-03  7.59778790E+07  0.00000000E+00  0.00000000E+00  7.59778790E+07
        36   13       7.92194690E-03  0.00000000E+00  7.59778790E+07  0.00000000E+00  7.59778790E+07
        36   14       3.12608009E-03  0.00000000E+00  3.07442939E+07  0.00000000E+00  3.07442939E+07
        36   15       4.03027920E-02  0.00000000E+00  5.17991679E+08  0.00000000E+00  5.17991679E+08
        36   52       4.03027920E-02  5.17991679E+08  0.00000000E+00  0.00000000E+00  5.17991679E+08
        36   53       2.84230132E-02  3.74990475E+08  0.00000000E+00  0.00000000E+00  3.74990475E+08
        56    3       4.12481260E-02  0.00000000E+00  0.00000000E+00  4.03639733E+07  4.03639733E+07
        56    5       1.44972683E-01  0.00000000E+00  0.00000000E+00  2.14469385E+08  2.14469385E+08
        56   65       1.08061880E-05  2.62095063E+04  0.00000000E+00  0.00000000E+00  2.62095063E+04
        56   77       1.08061880E-05  0.00000000E+00  2.62095063E+04  0.00000000E+00  2.62095063E+04
        56   67       1.36900217E-04  5.81472171E+05  0.00000000E+00  0.00000000E+00  5.81472171E+05
        56   79       1.36900217E-04  0.00000000E+00  5.81472171E+05  0.00000000E+00  5.81472171E+05
        56   80       3.55931512E-03  0.00000000E+00  2.63836460E+07  0.00000000E+00  2.63836460E+07
        56   68       3.55931512E-03  2.63836460E+07  0.00000000E+00  0.00000000E+00  2.63836460E+07
        56    7       1.71716676E-03  0.00000000E+00  0.00000000E+00  1.90839289E+07  1.90839289E+07
        56    8       1.04358502E-02  0.00000000E+00  0.00000000E+00  1.44406818E+08  1.44406818E+08
        56   10       9.84238290E-02  0.00000000E+00  0.00000000E+00  1.91370130E+09  1.91370130E+09
        31    3       5.10583629E-04  0.00000000E+00  2.46410762E+05  0.00000000E+00  2.46410762E+05
        31   44       1.75551433E-04  8.56383057E+04  0.00000000E+00  0.00000000E+00  8.56383057E+04
        31    4       1.75551433E-04  0.00000000E+00  8.56383057E+04  0.00000000E+00  8.56383057E+04
        31    5       2.70684146E-03  0.00000000E+00  2.29989921E+06  0.00000000E+00  2.29989921E+06
        31   77       3.53130006E-03  0.00000000E+00  0.00000000E+00  5.63167317E+06  5.63167317E+06
        31   79       1.84321660E-04  0.00000000E+00  0.00000000E+00  5.75114785E+05  5.75114785E+05
        31   80       4.53258730E-02  0.00000000E+00  0.00000000E+00  2.67221147E+08  2.67221147E+08
        31    6       1.10175378E-02  0.00000000E+00  1.01531578E+08  0.00000000E+00  1.01531578E+08
        31   45       1.10175378E-02  1.01531578E+08  0.00000000E+00  0.00000000E+00  1.01531578E+08
        31    7       1.96445005E-03  0.00000000E+00  1.81449033E+07  0.00000000E+00  1.81449033E+07
        31    8       3.55998158E-04  0.00000000E+00  4.17696533E+06  0.00000000E+00  4.17696533E+06
        31   46       7.46869665E-02  9.62101549E+08  0.00000000E+00  0.00000000E+00  9.62101549E+08
        31   47       6.55630052E-02  1.00969323E+09  0.00000000E+00  0.00000000E+00  1.00969323E+09
        31    9       6.55630052E-02  0.00000000E+00  1.00969323E+09  0.00000000E+00  1.00969323E+09
        31   10       1.24188246E-01  0.00000000E+00  2.10285614E+09  0.00000000E+00  2.10285614E+09
        31   11       7.03986316E-03  0.00000000E+00  1.55940587E+08  0.00000000E+00  1.55940587E+08
        31   12       2.80350601E-04  0.00000000E+00  8.99978525E+06  0.00000000E+00  8.99978525E+06
        19    3       5.10583629E-04  2.46410762E+05  0.00000000E+00  0.00000000E+00  2.46410762E+05
        19   44       1.75551433E-04  0.00000000E+00  8.56383057E+04  0.00000000E+00  8.56383057E+04
        19    4       1.75551433E-04  8.56383057E+04  0.00000000E+00  0.00000000E+00  8.56383057E+04
        19    5       2.70684146E-03  2.29989921E+06  0.00000000E+00  0.00000000E+00  2.29989921E+06
        19   65       3.53130006E-03  0.00000000E+00  0.00000000E+00  5.63167317E+06  5.63167317E+06
        19   67       1.84321660E-04  0.00000000E+00  0.00000000E+00  5.75114785E+05  5.75114785E+05
        19   68       4.53258730E-02  0.00000000E+00  0.00000000E+00  2.67221147E+08  2.67221147E+08
        19    6       1.10175378E-02  1.01531579E+08  0.00000000E+00  0.00000000E+00  1.01531579E+08
        19   45       1.10175378E-02  0.00000000E+00  1.01531578E+08  0.00000000E+00  1.01531578E+08
        19    7       1.96445005E-03  1.81449033E+07  0.00000000E+00  0.00000000E+00  1.81449033E+07
        19    8       3.55998158E-04  4.17696533E+06  0.00000000E+00  0.00000000E+00  4.17696533E+06
        19   46       7.46869665E-02  0.00000000E+00  9.62101549E+08  0.00000000E+00  9.62101549E+08
        19   47       6.55630052E-02  0.00000000E+00  1.00969323E+09  0.00000000E+00  1.00969323E+09
        19    9       6.55630052E-02  1.00969323E+09  0.00000000E+00  0.00000000E+00  1.00969323E+09
        19   10       1.24188246E-01  2.10285614E+09  0.00000000E+00  0.00000000E+00  2.10285614E+09
        19   11       7.03986316E-03  1.55940587E+08  0.00000000E+00  0.00000000E+00  1.55940587E+08
        19   12       2.80350601E-04  8.99978525E+06  0.00000000E+00  0.00000000E+00  8.99978525E+06
        25   49       5.61338059E-04  0.00000000E+00  6.86465276E+04  0.00000000E+00  6.86465276E+04
        25   70       5.12459550E-04  0.00000000E+00  0.00000000E+00  4.52411678E+05  4.52411678E+05
        25   72       3.19643943E-04  0.00000000E+00  0.00000000E+00  5.18372907E+05  5.18372907E+05
        25   73       2.10485414E-03  0.00000000E+00  0.00000000E+00  3.88364349E+06  3.88364349E+06
        25   74       1.10216792E-02  0.00000000E+00  0.00000000E+00  5.69141643E+07  5.69141643E+07
        25   50       2.17067695E-05  0.00000000E+00  1.21350542E+05  0.00000000E+00  1.21350542E+05
        25   51       1.07875229E-05  0.00000000E+00  7.89151083E+04  0.00000000E+00  7.89151083E+04
        25   13       1.07875229E-05  7.89151083E+04  0.00000000E+00  0.00000000E+00  7.89151083E+04
        25   14       1.38705398E-03  1.04426705E+07  0.00000000E+00  0.00000000E+00  1.04426705E+07
        25   15       1.70545375E-02  1.73857405E+08  0.00000000E+00  0.00000000E+00  1.73857405E+08
        25   52       1.70545375E-02  0.00000000E+00  1.73857405E+08  0.00000000E+00  1.73857405E+08
        25   53       2.71511508E-02  0.00000000E+00  2.85029301E+08  0.00000000E+00  2.85029301E+08
        37   49       5.61338059E-04  6.86465276E+04  0.00000000E+00  0.00000000E+00  6.86465276E+04
        37   82       5.12459550E-04  0.00000000E+00  0.00000000E+00  4.52411678E+05  4.52411678E+05
        37   84       3.19643943E-04  0.00000000E+00  0.00000000E+00  5.18372907E+05  5.18372907E+05
        37   85       2.10485414E-03  0.00000000E+00  0.00000000E+00  3.88364349E+06  3.88364349E+06
        37   86       1.10216792E-02  0.00000000E+00  0.00000000E+00  5.69141643E+07  5.69141643E+07
        37   50       2.17067695E-05  1.21350542E+05  0.00000000E+00  0.00000000E+00  1.21350542E+05
        37   51       1.07875229E-05  7.89151083E+04  0.00000000E+00  0.00000000E+00  7.89151083E+04
        37   13       1.07875229E-05  0.00000000E+00  7.89151083E+04  0.00000000E+00  7.89151083E+04
        37   14       1.38705398E-03  0.00000000E+00  1.04426705E+07  0.00000000E+00  1.04426705E+07
        37   15       1.70545375E-02  0.00000000E+00  1.73857405E+08  0.00000000E+00  1.73857405E+08
        37   52       1.70545375E-02  1.73857405E+08  0.00000000E+00  0.00000000E+00  1.73857405E+08
        37   53       2.71511508E-02  2.85029301E+08  0.00000000E+00  0.00000000E+00  2.85029301E+08
        32    3       1.63680320E-03  0.00000000E+00  3.52168688E+05  0.00000000E+00  3.52168688E+05
        32   44       1.40609371E-03  3.07436008E+05  0.00000000E+00  0.00000000E+00  3.07436008E+05
        32    4       1.40609371E-03  0.00000000E+00  3.07436008E+05  0.00000000E+00  3.07436008E+05
        32    5       7.80961148E-03  0.00000000E+00  3.72809814E+06  0.00000000E+00  3.72809814E+06
        32   77       3.28370944E-03  0.00000000E+00  0.00000000E+00  3.49722907E+06  3.49722907E+06
        32   79       8.80403247E-03  0.00000000E+00  0.00000000E+00  2.07591792E+07  2.07591792E+07
        32   80       3.41345836E-02  0.00000000E+00  0.00000000E+00  1.64795203E+08  1.64795203E+08
        32    6       1.02938291E-03  0.00000000E+00  8.09832762E+06  0.00000000E+00  8.09832762E+06
        32   45       1.02938291E-03  8.09832762E+06  0.00000000E+00  0.00000000E+00  8.09832762E+06
        32    7       2.14035389E-03  0.00000000E+00  1.68804128E+07  0.00000000E+00  1.68804128E+07
        32    8       1.03650815E-03  0.00000000E+00  1.05774803E+07  0.00000000E+00  1.05774803E+07
        32   46       6.62096556E-02  7.46711691E+08  0.00000000E+00  0.00000000E+00  7.46711691E+08
        32   47       8.04883738E-03  1.09800524E+08  0.00000000E+00  0.00000000E+00  1.09800524E+08
        32    9       8.04883738E-03  0.00000000E+00  1.09800524E+08  0.00000000E+00  1.09800524E+08
        32   10       1.31035329E-04  0.00000000E+00  1.97683023E+06  0.00000000E+00  1.97683023E+06
        32   11       2.05922125E-01  0.00000000E+00  4.12490736E+09  0.00000000E+00  4.12490736E+09
        32   12       2.22731357E-03  0.00000000E+00  6.57932214E+07  0.00000000E+00  6.57932214E+07
        20    3       1.63680320E-03  3.52168688E+05  0.00000000E+00  0.00000000E+00  3.52168688E+05
        20   44       1.40609371E-03  0.00000000E+00  3.07436008E+05  0.00000000E+00  3.07436008E+05
        20    4       1.40609371E-03  3.07436008E+05  0.00000000E+00  0.00000000E+00  3.07436008E+05
        20    5       7.80961148E-03  3.72809814E+06  0.00000000E+00  0.00000000E+00  3.72809814E+06
        20   65       3.28370944E-03  0.00000000E+00  0.00000000E+00  3.49722907E+06  3.49722907E+06
        20   67       8.80403247E-03  0.00000000E+00  0.00000000E+00  2.07591792E+07  2.07591792E+07
        20   68       3.41345836E-02  0.00000000E+00  0.00000000E+00  1.64795203E+08  1.64795203E+08
        20    6       1.02938291E-03  8.09832762E+06  0.00000000E+00  0.00000000E+00  8.09832762E+06
        20   45       1.02938291E-03  0.00000000E+00  8.09832762E+06  0.00000000E+00  8.09832762E+06
        20    7       2.14035389E-03  1.68804128E+07  0.00000000E+00  0.00000000E+00  1.68804128E+07
        20    8       1.03650815E-03  1.05774803E+07  0.00000000E+00  0.00000000E+00  1.05774803E+07
        20   46       6.62096556E-02  0.00000000E+00  7.46711691E+08  0.00000000E+00  7.46711691E+08
        20   47       8.04883738E-03  0.00000000E+00  1.09800524E+08  0.00000000E+00  1.09800524E+08
        20    9       8.04883738E-03  1.09800524E+08  0.00000000E+00  0.00000000E+00  1.09800524E+08
        20   10       1.31035329E-04  1.97683023E+06  0.00000000E+00  0.00000000E+00  1.97683023E+06
        20   11       2.05922125E-01  4.12490736E+09  0.00000000E+00  0.00000000E+00  4.12490736E+09
        20   12       2.22731357E-03  6.57932214E+07  0.00000000E+00  0.00000000E+00  6.57932214E+07
        49   26       1.31329889E-03  0.00000000E+00  1.28409541E+05  0.00000000E+00  1.28409541E+05
        49   38       1.31329889E-03  1.28409541E+05  0.00000000E+00  0.00000000E+00  1.28409541E+05
        49   96       1.05487224E-05  0.00000000E+00  0.00000000E+00  1.41305743E+04  1.41305743E+04
        49   39       1.34157161E-04  7.66681556E+05  0.00000000E+00  0.00000000E+00  7.66681556E+05
        49   27       1.34157161E-04  0.00000000E+00  7.66681556E+05  0.00000000E+00  7.66681556E+05
        49   97       3.90082461E-04  0.00000000E+00  0.00000000E+00  2.65573760E+06  2.65573760E+06
        49   29       3.85953518E-03  0.00000000E+00  2.77466890E+07  0.00000000E+00  2.77466890E+07
        49   41       3.85953518E-03  2.77466890E+07  0.00000000E+00  0.00000000E+00  2.77466890E+07
        49   98       9.11298261E-05  0.00000000E+00  0.00000000E+00  1.53052479E+06  1.53052479E+06
        87   99       2.22093168E-03  2.03982870E+05  0.00000000E+00  0.00000000E+00  2.03982870E+05
        87   42       1.56140652E-01  0.00000000E+00  0.00000000E+00  5.30361099E+08  5.30361099E+08
        75   99       2.22093168E-03  0.00000000E+00  2.03982870E+05  0.00000000E+00  2.03982870E+05
        75   30       1.56140652E-01  0.00000000E+00  0.00000000E+00  5.30361099E+08  5.30361099E+08
        26   70       3.80863936E-05  0.00000000E+00  0.00000000E+00  2.92642645E+03  2.92642645E+03
        26   72       1.56514031E-05  0.00000000E+00  0.00000000E+00  5.84442098E+03  5.84442098E+03
        26   73       2.85256155E-03  0.00000000E+00  0.00000000E+00  1.38161752E+06  1.38161752E+06
        26   74       3.05083928E-01  0.00000000E+00  0.00000000E+00  7.90822533E+08  7.90822533E+08
        26   50       3.86376262E-04  0.00000000E+00  1.11928181E+06  0.00000000E+00  1.11928181E+06
        26   51       1.11398619E-03  0.00000000E+00  4.64645855E+06  0.00000000E+00  4.64645855E+06
        26   13       1.11398619E-03  4.64645855E+06  0.00000000E+00  0.00000000E+00  4.64645855E+06
        26   14       1.96256851E-04  8.50268926E+05  0.00000000E+00  0.00000000E+00  8.50268926E+05
        26   15       5.20332043E-04  3.33175954E+06  0.00000000E+00  0.00000000E+00  3.33175954E+06
        26   52       5.20332043E-04  0.00000000E+00  3.33175954E+06  0.00000000E+00  3.33175954E+06
        26   53       2.08377698E-03  0.00000000E+00  1.38451833E+07  0.00000000E+00  1.38451833E+07
        38   82       3.80863936E-05  0.00000000E+00  0.00000000E+00  2.92642645E+03  2.92642645E+03
        38   84       1.56514031E-05  0.00000000E+00  0.00000000E+00  5.84442098E+03  5.84442098E+03
        38   85       2.85256155E-03  0.00000000E+00  0.00000000E+00  1.38161752E+06  1.38161752E+06
[...]
        83   95            96.823209  3.26098292E-04  1.02650229E-02
        83   40            41.284243  1.36461001E-01  9.65861432E-02
        71   60            96.823209  3.26098292E-04  1.02650229E-02
        71   95            96.823209  3.26098292E-04  1.02650229E-02
        71   28            41.284243  1.36461001E-01  9.65861432E-02
        65   21            98.782937  5.59412467E-05  4.59641467E-03
        65   90           208.842021  9.57315175E-04  3.09969211E-04
        65   22            44.428977  1.21102462E-01  8.38491448E-02
        65   57            13.478615  1.23899606E-02  1.09183221E-02
        65   91            13.478615  1.23899606E-02  1.09183221E-02
        65   92      --------------- below threshold  5.19382610E-04
        77   33            98.782937  5.59412467E-05  4.59641467E-03
        77   90           208.842021  9.57315175E-04  3.09969211E-04
        77   34            44.428977  1.21102462E-01  8.38491448E-02
        77   57            13.478615  1.23899606E-02  1.09183221E-02
        77   91            13.478615  1.23899606E-02  1.09183221E-02
        77   92      --------------- below threshold  5.19382610E-04
        84   61            94.194843  1.68193654E-05  2.89731436E-04
        84   96          2594.636732  3.90550702E-04  1.44936309E-05
        84   62      --------------- below threshold  1.65615794E-05
        84   39            49.099879  3.96706592E-03  2.66067682E-03
        84   97            44.197903  2.19507600E-02  1.52226624E-02
        84   41            34.580872  1.13699320E-01  8.44840122E-02
        84   63            96.859283  1.14517253E-04  3.64621373E-03
        84   98            29.157300  1.34382446E-02  1.04045568E-02
        72   61            94.194843  1.68193654E-05  2.89731436E-04
        72   96          2594.636732  3.90550702E-04  1.44936309E-05
        72   62      --------------- below threshold  1.65615794E-05
        72   27            49.099879  3.96706592E-03  2.66067682E-03
        72   97            44.197903  2.19507600E-02  1.52226624E-02
        72   29            34.580872  1.13699320E-01  8.44840122E-02
        72   63            96.859283  1.14517253E-04  3.64621373E-03
        72   98            29.157300  1.34382446E-02  1.04045568E-02
        60   73      --------------- below threshold  5.48372334E-03
        60   85      --------------- below threshold  5.48372334E-03
        60   74            79.648173  1.23319058E-04  6.05936064E-04
        60   86            79.648173  1.23319058E-04  6.05936064E-04
        60   13            21.762049  8.12573538E-03  1.03859256E-02
        60   15            18.314593  3.42649967E-02  4.19475128E-02
        95   73      --------------- below threshold  5.48372334E-03
        95   85      --------------- below threshold  5.48372334E-03
        95   74            79.648173  1.23319058E-04  6.05936064E-04
        95   86            79.648173  1.23319058E-04  6.05936064E-04
        95   51            21.762049  8.12573538E-03  1.03859256E-02
        95   52            18.314593  3.42649967E-02  4.19475128E-02
        73   61            99.446169  1.27031726E-04  2.29368908E-02
        73   96            99.627158  3.50884464E-05  9.41108900E-03
        73   62      --------------- below threshold  3.54561608E-04
        73   27            12.446032  1.19626545E-03  1.36631781E-03
        73   97            19.500784  1.22251982E-03  1.51867295E-03
        73   29            25.292679  3.12619506E-03  2.49511391E-03
        73   63            16.849647  3.50841448E-04  4.21936208E-04
        73   98            90.304646  1.85149240E-04  1.90966972E-03
        85   61            99.446169  1.27031726E-04  2.29368908E-02
        85   96            99.627158  3.50884464E-05  9.41108900E-03
        85   62      --------------- below threshold  3.54561608E-04
        85   39            12.446032  1.19626545E-03  1.36631781E-03
        85   97            19.500784  1.22251982E-03  1.51867295E-03
        85   41            25.292679  3.12619506E-03  2.49511391E-03
        85   63            16.849647  3.50841448E-04  4.21936208E-04
        85   98            90.304646  1.85149240E-04  1.90966972E-03
        61   74            98.013627  1.73241606E-05  8.72150500E-04
        61   86            98.013627  1.73241606E-05  8.72150500E-04
        61   14            18.957319  6.73180609E-03  8.30649477E-03
        96   74            79.698397  1.32943283E-04  6.54841323E-04
        96   86            79.698397  1.32943283E-04  6.54841323E-04
        96   50           785.961383  7.97017207E-04  8.99607164E-05
        96   53            54.264157  3.21584352E-03  7.03134200E-03
        66   57           261.623365  8.21806889E-03  2.27254920E-03
        66   91           261.623365  8.21806889E-03  2.27254920E-03
        66   23            30.894526  1.53592883E-01  1.17340951E-01
        78   57           261.623365  8.21806889E-03  2.27254920E-03
        78   91           261.623365  8.21806889E-03  2.27254920E-03
        78   35            30.894526  1.53592883E-01  1.17340951E-01
        33   79            98.949792  9.69721016E-04  9.23360945E-02
        33   80            36.522288  5.63676383E-02  8.87991027E-02
        33    6            37.942367  6.67002081E-05  1.07481070E-04
        33   45            37.942367  6.67002081E-05  1.07481070E-04
        33    8            77.125680  2.12044332E-05  9.26997329E-05
        33   46          1589.835996  1.96890294E-03  1.16514440E-04
        33   47            50.406631  4.50247661E-04  2.99353598E-04
        33    9            50.406631  4.50247661E-04  2.99353598E-04
        33   10            45.345991  3.40445637E-03  6.22910641E-03
        33   11           104.469738  9.76032076E-02  4.77347938E-02
        33   12           329.125683  1.54641413E-03  3.60363920E-04
        21   67            98.949792  9.69721016E-04  9.23360945E-02
        21   68            36.522288  5.63676383E-02  8.87991027E-02
        21    6            37.942367  6.67002081E-05  1.07481070E-04
        21   45            37.942367  6.67002081E-05  1.07481070E-04
        21    8            77.125680  2.12044332E-05  9.26997329E-05
        21   46          1589.835996  1.96890294E-03  1.16514440E-04
        21   47            50.406631  4.50247661E-04  2.99353598E-04
        21    9            50.406631  4.50247661E-04  2.99353598E-04
        21   10            45.345991  3.40445637E-03  6.22910641E-03
        21   11           104.469738  9.76032076E-02  4.77347938E-02
        21   12           329.125683  1.54641413E-03  3.60363920E-04
        67   90            99.956881  1.11690572E-05  2.59026456E-02
        67   22            25.499045  2.32666725E-03  3.12300325E-03
        67   57           153.815937  1.91292579E-03  7.53666541E-04
        67   91           153.815937  1.91292579E-03  7.53666541E-04
        67   92           356.766863  1.05552611E-03  2.31086402E-04
        79   90            99.956881  1.11690572E-05  2.59026456E-02
        79   34            25.499045  2.32666725E-03  3.12300325E-03
        79   57           153.815937  1.91292579E-03  7.53666541E-04
        79   91           153.815937  1.91292579E-03  7.53666541E-04
        79   92           356.766863  1.05552611E-03  2.31086402E-04
        90   80      ---------------  1.40305181E-04 below threshold
        90   68      ---------------  1.40305181E-04 below threshold
        90   46            73.612246  5.37991292E-04  2.03879153E-03
        62   74            89.830323  8.11567331E-04  7.98026644E-03
        62   86            89.830323  8.11567331E-04  7.98026644E-03
        62   14            59.321735  1.73851682E-04  4.27382245E-04
        16   30            97.835770  3.77259133E-04  1.74315666E-02
        16   42            97.835770  3.77259133E-04  1.74315666E-02
        54   30            97.835770  3.77259133E-04  1.74315666E-02
        54   42            97.835770  3.77259133E-04  1.74315666E-02
        17   30            97.387887  2.74327174E-04  1.05021174E-02
        17   42            97.387887  2.74327174E-04  1.05021174E-02
        74   27      --------------- below threshold  8.25385234E-04
        74   97      --------------- below threshold  1.45266648E-04
        74   29      ---------------  1.50048623E-04 below threshold
        74   63      --------------- below threshold  6.73360423E-05
        74   98           435.296884  1.72306124E-04  3.21888897E-05
        86   39      --------------- below threshold  8.25385234E-04
        86   97      --------------- below threshold  1.45266648E-04
        86   41      ---------------  1.50048623E-04 below threshold
        86   63      --------------- below threshold  6.73360423E-05
        86   98           435.296884  1.72306124E-04  3.21888897E-05
        30   18           212.708800  5.10213876E-03  1.63159423E-03
        42   18           212.708800  5.10213876E-03  1.63159423E-03
        50   39            92.216715  8.10700210E-04  1.04159134E-02
        50   27            92.216715  8.10700210E-04  1.04159134E-02
        50   97            78.695741  2.10580692E-03  9.88444084E-03
        50   29            94.803261  5.04997744E-05  9.71758991E-04
        50   41            94.803261  5.04997744E-05  9.71758991E-04
        80   34            85.764684  6.51931592E-05  4.57967757E-04
        80   57            89.975779  7.51747888E-05  7.49931512E-04
        80   91            89.975779  7.51747888E-05  7.49931512E-04
        80   92         10977.915890  5.58468896E-03  5.04128124E-05
        68   22            85.764684  6.51931592E-05  4.57967757E-04
        68   57            89.975779  7.51747888E-05  7.49931512E-04
        68   91            89.975779  7.51747888E-05  7.49931512E-04
        68   92         10977.915894  5.58468896E-03  5.04128124E-05
        51   39      --------------- below threshold  5.08849900E-03
        51   27      --------------- below threshold  5.08849900E-03
        51   40            94.279625  4.87717512E-04  8.52597157E-03
        51   28            94.279625  4.87717512E-04  8.52597157E-03
        51   29            98.464301  8.90375998E-05  5.79785302E-03
        51   41            98.464301  8.90375998E-05  5.79785302E-03
        13   39      --------------- below threshold  5.08849900E-03
        13   27      --------------- below threshold  5.08849900E-03
        13   40            94.279625  4.87717512E-04  8.52597157E-03
        13   28            94.279625  4.87717512E-04  8.52597157E-03
        13   29            98.464301  8.90375998E-05  5.79785302E-03
        13   41            98.464301  8.90375998E-05  5.79785302E-03
        39   14      --------------- below threshold  4.20193678E-01
        39   15      ---------------  2.51386134E-05 below threshold
        39   52      ---------------  2.51386134E-05 below threshold
        39   53            89.337544  6.95090402E-04  6.51904601E-03
        27   14      --------------- below threshold  4.20193678E-01
        27   15      ---------------  2.51386134E-05 below threshold
        27   52      ---------------  2.51386134E-05 below threshold
        27   53            89.337544  6.95090402E-04  6.51904601E-03
        14   29            97.810520  1.88603806E-04  8.61409206E-03
        14   41            97.810520  1.88603806E-04  8.61409206E-03
        14   63      --------------- below threshold  8.78097339E-05
        97   53            93.953338  3.46380718E-03  5.72846143E-02
        40   15            99.393789  1.61650346E-04  2.66656872E-02
        40   52            99.393789  1.61650346E-04  2.66656872E-02
        28   15            99.393789  1.61650346E-04  2.66656872E-02
        28   52            99.393789  1.61650346E-04  2.66656872E-02
         6   22            99.578012  3.99527017E-05  9.46772429E-03
         6   34            99.578012  3.99527016E-05  9.46772429E-03
         6   57            89.450786  1.26705185E-03  1.20108653E-02
         6   23            94.661721  6.35687870E-04  1.19081049E-02
         6   35            94.661721  6.35687870E-04  1.19081049E-02
        45   22            99.578012  3.99527016E-05  9.46772429E-03
        45   34            99.578012  3.99527016E-05  9.46772429E-03
        45   91            89.450786  1.26705185E-03  1.20108653E-02
        45   23            94.661721  6.35687870E-04  1.19081049E-02
        45   35            94.661721  6.35687870E-04  1.19081049E-02
        29   15            90.530119  5.53534935E-05  5.84521554E-04
        29   52            90.530119  5.53534935E-05  5.84521554E-04
        29   53            97.821860  2.41752306E-05  1.10990244E-03
        41   15            90.530119  5.53534935E-05  5.84521554E-04
        41   52            90.530119  5.53534935E-05  5.84521554E-04
        41   53            97.821860  2.41752306E-05  1.10990244E-03
         7   22            99.537421  1.13584725E-04  2.45546601E-02
         7   34            99.537421  1.13584725E-04  2.45546601E-02
        22    8            99.629115  2.81801142E-05  7.59807313E-03
        22   46            82.633494  2.86151534E-03  1.64772081E-02
        22   47      --------------- below threshold  3.10252363E-04
        22    9      --------------- below threshold  3.10252363E-04
        22   10            99.650458  1.30054942E-05  3.72071902E-03
        22   11            97.360529  1.46078433E-05  5.53438225E-04
        22   12            30.779236  1.63438376E-02  1.24972725E-02
        34    8            99.629115  2.81801142E-05  7.59807313E-03
        34   46            82.633494  2.86151534E-03  1.64772081E-02
        34   47      --------------- below threshold  3.10252363E-04
        34    9      --------------- below threshold  3.10252363E-04
        34   10            99.650458  1.30054942E-05  3.72071902E-03
        34   11            97.360529  1.46078433E-05  5.53438225E-04
        34   12            30.779236  1.63438376E-02  1.24972725E-02
        57    9            67.457541  2.92915615E-02  9.00102892E-02
        57   12            29.393427  2.32406944E-01  1.79612635E-01
        91   47            67.457541  2.92915615E-02  9.00102892E-02
        53   98            19.140348  4.03450237E-03  4.98951242E-03
        23   47            99.901341  1.06045177E-05  1.07486145E-02
        23    9            99.901341  1.06045177E-05  1.07486145E-02
        23   12           131.543525  1.76435099E-02  7.61995390E-03
        35   47            99.901341  1.06045177E-05  1.07486145E-02
        35    9            99.901341  1.06045177E-05  1.07486145E-02
        35   12           131.543525  1.76435099E-02  7.61995390E-03
        46   92            80.523397  1.03701884E-03  5.32443376E-03
     ---------------------------------------------------------------

 Number of problematic transitions =                   578

--

 Electric-dipole - electric-octupole not included
 Electric-dipole - magnetic-quadrupole not included


      ****************************************************************************************************
      *                                                                                                  *
      *                                    Special properties section                                    *
      *                                                                                                  *
      ****************************************************************************************************


++ I/O STATISTICS
 
  I. General I/O information
  - - - - - - - - - - - - - - - - - - - - - - - - - - - - - - - - - - - - - - - - - - -
  Unit  Name          Flsize      Write/Read            MBytes           Write/Read
                      (MBytes)       Calls              In/Out           Time, sec.
  - - - - - - - - - - - - - - - - - - - - - - - - - - - - - - - - - - - - - - - - - - -
   1  RUNFILE           0.99 .     266/  263135 .      2.5/   1903.5 .       0/       0
   2  ANNI              0.00 .       0/       0 .      0.0/      0.0 .       0/       0
   3  ONEINT            1.54 .       0/  126040 .      0.0/ 152831.4 .       0/      19
   4  JOBIPH            1.52 .       0/     651 .      0.0/      1.5 .       0/       0
   5  JOBIPH01          1.22 .       0/     219 .      0.0/      1.3 .       0/       0
   6  JOBIPH02          1.22 .       0/     219 .      0.0/      1.3 .       0/       0
   7  JOBIPH03          1.28 .       0/     315 .      0.0/      1.4 .       0/       0
   8  JOBIPH04          1.32 .       0/     363 .      0.0/      1.4 .       0/       0
   9  JOBIPH05          1.15 .       0/     123 .      0.0/      1.3 .       0/       0
  10  JOBIPH06          1.28 .       0/     315 .      0.0/      1.4 .       0/       0
  11  JOBIPH07          1.32 .       0/     363 .      0.0/      1.4 .       0/       0
  12  JOBIPH08          1.15 .       0/     123 .      0.0/      1.3 .       0/       0
  13  JOBIPH09          1.28 .       0/     315 .      0.0/      1.4 .       0/       0
  14  JOBIPH10          1.32 .       0/     363 .      0.0/      1.4 .       0/       0
  15  JOBIPH11          1.15 .       0/     123 .      0.0/      1.3 .       0/       0
  16  JOBIPH12          1.22 .       0/     219 .      0.0/      1.3 .       0/       0
  17  JOBIPH13          1.32 .       0/     363 .      0.0/      1.4 .       0/       0
  18  JOBIPH14          1.28 .       0/     315 .      0.0/      1.4 .       0/       0
  19  JOBIPH15          1.32 .       0/     363 .      0.0/      1.4 .       0/       0
  20  JOBIPH16          1.15 .       0/     123 .      0.0/      1.3 .       0/       0
  21  JOBIPH17          1.28 .       0/     315 .      0.0/      1.4 .       0/       0
  22  JOBIPH18          1.32 .       0/     363 .      0.0/      1.4 .       0/       0
  23  JOBIPH19          1.15 .       0/     123 .      0.0/      1.3 .       0/       0
  24  JOBIPH20          1.28 .       0/     315 .      0.0/      1.4 .       0/       0
  25  JOBIPH21          1.32 .       0/     363 .      0.0/      1.4 .       0/       0
  26  JOBIPH22          1.15 .       0/     123 .      0.0/      1.3 .       0/       0
  - - - - - - - - - - - - - - - - - - - - - - - - - - - - - - - - - - - - - - - - - - -
   *  TOTAL            31.50 .     266/  395652 .      2.5/ 154766.0 .       0/      19
  - - - - - - - - - - - - - - - - - - - - - - - - - - - - - - - - - - - - - - - - - - -
 
  II. I/O Access Patterns
  - - - - - - - - - - - - - - - - - - - -
  Unit  Name               % of random
                         Write/Read calls
  - - - - - - - - - - - - - - - - - - - -
   1  RUNFILE             28.6/  11.1
   2  ANNI                 0.0/   0.0
   3  ONEINT               0.0/  99.3
   4  JOBIPH               0.0/  51.9
   5  JOBIPH01             0.0/  55.7
   6  JOBIPH02             0.0/  55.7
   7  JOBIPH03             0.0/  54.0
   8  JOBIPH04             0.0/  53.4
   9  JOBIPH05             0.0/  60.2
  10  JOBIPH06             0.0/  54.0
  11  JOBIPH07             0.0/  53.4
  12  JOBIPH08             0.0/  60.2
  13  JOBIPH09             0.0/  54.0
  14  JOBIPH10             0.0/  53.4
  15  JOBIPH11             0.0/  60.2
  16  JOBIPH12             0.0/  55.7
  17  JOBIPH13             0.0/  53.4
  18  JOBIPH14             0.0/  54.0
  19  JOBIPH15             0.0/  53.4
  20  JOBIPH16             0.0/  60.2
  21  JOBIPH17             0.0/  54.0
  22  JOBIPH18             0.0/  53.4
  23  JOBIPH19             0.0/  60.2
  24  JOBIPH20             0.0/  54.0
  25  JOBIPH21             0.0/  53.4
  26  JOBIPH22             0.0/  60.2
  - - - - - - - - - - - - - - - - - - - -
--
--- Stop Module: rassi at Thu Apr 17 10:49:58 2025 /rc=_RC_ALL_IS_WELL_ ---
--- Module rassi spent 40 seconds ---

.##################.
.# Happy landing! #.
.##################.

    Timing: Wall=40.78 User=19.85 System=20.51
