   This run of MOLCAS is using the pymolcas driver

                             OPE
                             OPE          NMOL  CASOP  ENMOLC A   SO
                 OPE        NMOLC        AS  OP EN  MO LC     AS  OP
                OPENM       OL CA        SO  PE NM  OL CA     SOP EN
                OP EN      MO   LC       AS  OP ENMOL  CASO   PENMOL
                OP  EN     MO   LC       AS  OP EN     MO     LC ASO
               OP   E  NMOL  C  AS       OP  EN MO     LC     AS  OP
               OP  E   NMO   LC AS        OPEN  MO     LCASOP EN   M
               O  PEN   MO  LCA  SO
            OPE   NMO   L   CAS    OP
        OPENMOL  CASOP     ENMOL   CASOPE
     OPENMOLCA   SOPENMOLCASOPEN   MOLCASOPE
    OPENMOLCAS   OP           EN   MOL    CAS
    OPENMOLCAS       OP  ENM        O     LCA
    OPENMOLCAS    OPEN  MOLCASO     P  E  NMO
    OPENMOLCAS     OP               E  N  MOL
    OPENMOLCA   SO           PENM   O  L  CAS    OPEN    MO    LCAS
    OPENMOLCA   SOP           ENM   O  L  CAS   OP  EN  MOLC  AS   O
    OPENMOLCA   SOPE           NM      O  LCA   S      OP  EN MO
    OPENMOLC                AS         O  PEN   M      OL  CA  SOPE
    OPENMO        LCASOPE  NMOL        C  ASO   P      ENMOLC     AS
    OPE     NMO      LCA  SO     P     E   NM   OL  CA SO  PE N   MO
          OPENMOLCA            SOPE   NMO        LCAS  O    P  ENMO
     OPENMOLCASOPENMOLCASOPENMOLCASOPENMOLCA
        OPENMOLCASOPENMOLCASOPENMOLCASOPE
            OPENMOLCASOPENMOLCASOPENM
               OPENMOLCASOPENMOLCA        version: 25.02
                   OPENMOLCASO
                       OPE                tag: 92-gf4b470f0a

 OpenMolcas is free software; you can redistribute it and/or modify it
 under the terms of the GNU Lesser General Public License version 2.1.
 OpenMolcas is distributed in the hope that it will be useful, but it
 is provided "as is" and without any express or implied warranties.
 For more details see the full text of the license in the file
 LICENSE or in <http://www.gnu.org/licenses/>.

                 Copyright (C) The OpenMolcas Authors
           For the author list and the recommended citation,
                   consult the file CONTRIBUTORS.md

           *************************************************
           * pymolcas version py2.29                       *
           *   build 2ba4516c4d154a59cba941070ba63e2c      *
           *   (after the EMIL interpreter by V. Veryazov) *
           *************************************************

configuration info
------------------
Host name: iftia91.univ.gda.pl (Linux)
C Compiler ID: GNU
C flags: -std=gnu99
Fortran Compiler ID: GNU
Fortran flags: -cpp -fdefault-integer-8 -fmax-stack-var-size=1048576
Definitions: _MOLCAS_;_I8_;_LINUX_
Parallel: OFF (GA=OFF)


   --------------------------------------------------------------------
  |
  |           Project: O2
  |    Submitted from: /scratch/tecumseh/WorkSpace/O2.0.5250
  |      Scratch area: /scratch/tecumseh/WorkSpace/O2.0.5250
  |   Save outputs to: WORKDIR
  |            Molcas: /home/tecumseh/program/OpenMolcas/build
  |
  | Scratch area is NOT empty
  |
  |    MOLCAS_DRIVER = /home/tecumseh/program/OpenMolcas/build/pymolcas
  |    MOLCAS_NPROCS = 1
  |    MOLCAS_SOURCE = /home/tecumseh/program/OpenMolcas/OpenMolcas
  | MOLCAS_STRUCTURE = 0
  |
   --------------------------------------------------------------------

++ ---------   Input file   ---------

>>> COPY $dir/vectors/$Project.$R.1Ag-12S.JobIph $WorkDir/JOBIPH

>>> COPY $dir/vectors/$Project.$R.3Ag-3S.JobIph $WorkDir/JOBIPH01

>>> COPY $dir/vectors/$Project.$R.5Ag-3S.JobIph $WorkDir/JOBIPH02

>>> COPY $dir/vectors/$Project.$R.1B3u-5S.JobIph $WorkDir/JOBIPH03

>>> COPY $dir/vectors/$Project.$R.3B3u-6S.JobIph $WorkDir/JOBIPH04

>>> COPY $dir/vectors/$Project.$R.5B3u-1S.JobIph $WorkDir/JOBIPH05

>>> COPY $dir/vectors/$Project.$R.1B2u-5S.JobIph $WorkDir/JOBIPH06

>>> COPY $dir/vectors/$Project.$R.3B2u-6S.JobIph $WorkDir/JOBIPH07

>>> COPY $dir/vectors/$Project.$R.5B2u-1S.JobIph $WorkDir/JOBIPH08

>>> COPY $dir/vectors/$Project.$R.1B1g-5S.JobIph $WorkDir/JOBIPH09

>>> COPY $dir/vectors/$Project.$R.3B1g-6S.JobIph $WorkDir/JOBIPH10

>>> COPY $dir/vectors/$Project.$R.5B1g-1S.JobIph $WorkDir/JOBIPH11

>>> COPY $dir/vectors/$Project.$R.1B1u-3S.JobIph $WorkDir/JOBIPH12

>>> COPY $dir/vectors/$Project.$R.3B1u-6S.JobIph $WorkDir/JOBIPH13

>>> COPY $dir/vectors/$Project.$R.1B2g-5S.JobIph $WorkDir/JOBIPH14

>>> COPY $dir/vectors/$Project.$R.3B2g-6S.JobIph $WorkDir/JOBIPH15

>>> COPY $dir/vectors/$Project.$R.5B2g-1S.JobIph $WorkDir/JOBIPH16

>>> COPY $dir/vectors/$Project.$R.1B3g-5S.JobIph $WorkDir/JOBIPH17

>>> COPY $dir/vectors/$Project.$R.3B3g-6S.JobIph $WorkDir/JOBIPH18

>>> COPY $dir/vectors/$Project.$R.5B3g-1S.JobIph $WorkDir/JOBIPH19

>>> COPY $dir/vectors/$Project.$R.1Au-5S.JobIph $WorkDir/JOBIPH20

>>> COPY $dir/vectors/$Project.$R.3Au-6S.JobIph $WorkDir/JOBIPH21

>>> COPY $dir/vectors/$Project.$R.5Au-1S.JobIph $WorkDir/JOBIPH22

&RASSI

OMEGa
NROF=23 12 3 3 5 6 1 5 6 1 5 6 1 3 6 5 6 1 5 6 1 5 6 1
1 2 3 4 5 6 7 8 9 10 11 12
1 2 3
1 2 3
1 2 3 4 5
1 2 3 4 5 6
1
1 2 3 4 5
1 2 3 4 5 6
1
1 2 3 4 5
1 2 3 4 5 6
1
1 2 3
1 2 3 4 5 6
1 2 3 4 5
1 2 3 4 5 6
1
1 2 3 4 5
1 2 3 4 5 6
1
1 2 3 4 5
1 2 3 4 5 6
1
EJOB

-- ----------------------------------

>>> COPY /home/tecumseh/project/molecule/O2/OpenMolcas/vectors/O2.0.5250.1Ag-12S.JobIph /scratch/tecumseh/WorkSpace/O2.0.5250/JOBIPH

>>> COPY /home/tecumseh/project/molecule/O2/OpenMolcas/vectors/O2.0.5250.3Ag-3S.JobIph /scratch/tecumseh/WorkSpace/O2.0.5250/JOBIPH01

>>> COPY /home/tecumseh/project/molecule/O2/OpenMolcas/vectors/O2.0.5250.5Ag-3S.JobIph /scratch/tecumseh/WorkSpace/O2.0.5250/JOBIPH02

>>> COPY /home/tecumseh/project/molecule/O2/OpenMolcas/vectors/O2.0.5250.1B3u-5S.JobIph /scratch/tecumseh/WorkSpace/O2.0.5250/JOBIPH03

>>> COPY /home/tecumseh/project/molecule/O2/OpenMolcas/vectors/O2.0.5250.3B3u-6S.JobIph /scratch/tecumseh/WorkSpace/O2.0.5250/JOBIPH04

>>> COPY /home/tecumseh/project/molecule/O2/OpenMolcas/vectors/O2.0.5250.5B3u-1S.JobIph /scratch/tecumseh/WorkSpace/O2.0.5250/JOBIPH05

>>> COPY /home/tecumseh/project/molecule/O2/OpenMolcas/vectors/O2.0.5250.1B2u-5S.JobIph /scratch/tecumseh/WorkSpace/O2.0.5250/JOBIPH06

>>> COPY /home/tecumseh/project/molecule/O2/OpenMolcas/vectors/O2.0.5250.3B2u-6S.JobIph /scratch/tecumseh/WorkSpace/O2.0.5250/JOBIPH07

>>> COPY /home/tecumseh/project/molecule/O2/OpenMolcas/vectors/O2.0.5250.5B2u-1S.JobIph /scratch/tecumseh/WorkSpace/O2.0.5250/JOBIPH08

>>> COPY /home/tecumseh/project/molecule/O2/OpenMolcas/vectors/O2.0.5250.1B1g-5S.JobIph /scratch/tecumseh/WorkSpace/O2.0.5250/JOBIPH09

>>> COPY /home/tecumseh/project/molecule/O2/OpenMolcas/vectors/O2.0.5250.3B1g-6S.JobIph /scratch/tecumseh/WorkSpace/O2.0.5250/JOBIPH10

>>> COPY /home/tecumseh/project/molecule/O2/OpenMolcas/vectors/O2.0.5250.5B1g-1S.JobIph /scratch/tecumseh/WorkSpace/O2.0.5250/JOBIPH11

>>> COPY /home/tecumseh/project/molecule/O2/OpenMolcas/vectors/O2.0.5250.1B1u-3S.JobIph /scratch/tecumseh/WorkSpace/O2.0.5250/JOBIPH12

>>> COPY /home/tecumseh/project/molecule/O2/OpenMolcas/vectors/O2.0.5250.3B1u-6S.JobIph /scratch/tecumseh/WorkSpace/O2.0.5250/JOBIPH13

>>> COPY /home/tecumseh/project/molecule/O2/OpenMolcas/vectors/O2.0.5250.1B2g-5S.JobIph /scratch/tecumseh/WorkSpace/O2.0.5250/JOBIPH14

>>> COPY /home/tecumseh/project/molecule/O2/OpenMolcas/vectors/O2.0.5250.3B2g-6S.JobIph /scratch/tecumseh/WorkSpace/O2.0.5250/JOBIPH15

>>> COPY /home/tecumseh/project/molecule/O2/OpenMolcas/vectors/O2.0.5250.5B2g-1S.JobIph /scratch/tecumseh/WorkSpace/O2.0.5250/JOBIPH16

>>> COPY /home/tecumseh/project/molecule/O2/OpenMolcas/vectors/O2.0.5250.1B3g-5S.JobIph /scratch/tecumseh/WorkSpace/O2.0.5250/JOBIPH17

>>> COPY /home/tecumseh/project/molecule/O2/OpenMolcas/vectors/O2.0.5250.3B3g-6S.JobIph /scratch/tecumseh/WorkSpace/O2.0.5250/JOBIPH18

>>> COPY /home/tecumseh/project/molecule/O2/OpenMolcas/vectors/O2.0.5250.5B3g-1S.JobIph /scratch/tecumseh/WorkSpace/O2.0.5250/JOBIPH19

>>> COPY /home/tecumseh/project/molecule/O2/OpenMolcas/vectors/O2.0.5250.1Au-5S.JobIph /scratch/tecumseh/WorkSpace/O2.0.5250/JOBIPH20

>>> COPY /home/tecumseh/project/molecule/O2/OpenMolcas/vectors/O2.0.5250.3Au-6S.JobIph /scratch/tecumseh/WorkSpace/O2.0.5250/JOBIPH21

>>> COPY /home/tecumseh/project/molecule/O2/OpenMolcas/vectors/O2.0.5250.5Au-1S.JobIph /scratch/tecumseh/WorkSpace/O2.0.5250/JOBIPH22

--- Start Module: rassi at Thu Apr 17 10:52:57 2025 ---

()()()()()()()()()()()()()()()()()()()()()()()()()()()()()()()()()()()()()()()()()()()()()()()()()()

                                               &RASSI

                                   only a single process is used
                       available to each process: 2.0 GB of memory, 1 thread?
                                            pid: 297987
()()()()()()()()()()()()()()()()()()()()()()()()()()()()()()()()()()()()()()()()()()()()()()()()()()


      ********************************************************************************
      *                                                                              *
      *                             General data section                             *
      *                                                                              *
      ********************************************************************************

   Specific data for JOBIPH file JOBIPH
   -------------------------------------

   Header from SEWARD:
                            O2, D2h symmetry, aug-cc-pVTZ                      
        Integrals generated by Gateway/Seward, Wed Apr 16 15:36:12 2025        

   CASSCF title (first line only):
       O2, 1Ag 12S                                                             

  STATE IRREP:                1
  SPIN MULTIPLICITY:          1
  ACTIVE ELECTRONS:          12
  MAX RAS1 HOLES:             0
  MAX RAS3 ELECTRONS:         0
  NR OF CONFIG:              60

   Specific data for JOBIPH file JOBIPH01
   -------------------------------------

   Header from SEWARD:
                            O2, D2h symmetry, aug-cc-pVTZ                      
        Integrals generated by Gateway/Seward, Wed Apr 16 15:36:12 2025        

   CASSCF title (first line only):
       O2, 3Ag  3S                                                             

  STATE IRREP:                1
  SPIN MULTIPLICITY:          3
  ACTIVE ELECTRONS:          12
  MAX RAS1 HOLES:             0
  MAX RAS3 ELECTRONS:         0
  NR OF CONFIG:              42

   Specific data for JOBIPH file JOBIPH02
   -------------------------------------

   Header from SEWARD:
                            O2, D2h symmetry, aug-cc-pVTZ                      
        Integrals generated by Gateway/Seward, Wed Apr 16 15:36:12 2025        

   CASSCF title (first line only):
       O2, 5Ag  3S                                                             

  STATE IRREP:                1
  SPIN MULTIPLICITY:          5
  ACTIVE ELECTRONS:          12
  MAX RAS1 HOLES:             0
  MAX RAS3 ELECTRONS:         0
  NR OF CONFIG:              10

   Specific data for JOBIPH file JOBIPH03
   -------------------------------------

   Header from SEWARD:
                            O2, D2h symmetry, aug-cc-pVTZ                      
        Integrals generated by Gateway/Seward, Thu Apr 17 10:52:48 2025        

   CASSCF title (first line only):
       O2, 1B3u 5S                                                             

  STATE IRREP:                2
  SPIN MULTIPLICITY:          1
  ACTIVE ELECTRONS:          12
  MAX RAS1 HOLES:             0
  MAX RAS3 ELECTRONS:         0
  NR OF CONFIG:              40

   Specific data for JOBIPH file JOBIPH04
   -------------------------------------

   Header from SEWARD:
                            O2, D2h symmetry, aug-cc-pVTZ                      
        Integrals generated by Gateway/Seward, Wed Apr 16 15:36:12 2025        

   CASSCF title (first line only):
       O2, 3B3u 6S                                                             

  STATE IRREP:                2
  SPIN MULTIPLICITY:          3
  ACTIVE ELECTRONS:          12
  MAX RAS1 HOLES:             0
  MAX RAS3 ELECTRONS:         0
  NR OF CONFIG:              48

   Specific data for JOBIPH file JOBIPH05
   -------------------------------------

   Header from SEWARD:
                            O2, D2h symmetry, aug-cc-pVTZ                      
        Integrals generated by Gateway/Seward, Wed Apr 16 15:36:12 2025        

   CASSCF title (first line only):
       O2, 5B3u 1S                                                             

  STATE IRREP:                2
  SPIN MULTIPLICITY:          5
  ACTIVE ELECTRONS:          12
  MAX RAS1 HOLES:             0
  MAX RAS3 ELECTRONS:         0
  NR OF CONFIG:               8

   Specific data for JOBIPH file JOBIPH06
   -------------------------------------

   Header from SEWARD:
                            O2, D2h symmetry, aug-cc-pVTZ                      
        Integrals generated by Gateway/Seward, Thu Apr 17 10:52:48 2025        

   CASSCF title (first line only):
       O2, 1B2u 5S                                                             

  STATE IRREP:                3
  SPIN MULTIPLICITY:          1
  ACTIVE ELECTRONS:          12
  MAX RAS1 HOLES:             0
  MAX RAS3 ELECTRONS:         0
  NR OF CONFIG:              40

   Specific data for JOBIPH file JOBIPH07
   -------------------------------------

   Header from SEWARD:
                            O2, D2h symmetry, aug-cc-pVTZ                      
        Integrals generated by Gateway/Seward, Wed Apr 16 15:36:12 2025        

   CASSCF title (first line only):
       O2, 3B2u 6S                                                             

  STATE IRREP:                3
  SPIN MULTIPLICITY:          3
  ACTIVE ELECTRONS:          12
  MAX RAS1 HOLES:             0
  MAX RAS3 ELECTRONS:         0
  NR OF CONFIG:              48

   Specific data for JOBIPH file JOBIPH08
   -------------------------------------

   Header from SEWARD:
                            O2, D2h symmetry, aug-cc-pVTZ                      
        Integrals generated by Gateway/Seward, Wed Apr 16 15:36:12 2025        

   CASSCF title (first line only):
       O2, 5B2u 1S                                                             

  STATE IRREP:                3
  SPIN MULTIPLICITY:          5
  ACTIVE ELECTRONS:          12
  MAX RAS1 HOLES:             0
  MAX RAS3 ELECTRONS:         0
  NR OF CONFIG:               8

   Specific data for JOBIPH file JOBIPH09
   -------------------------------------

   Header from SEWARD:
                            O2, D2h symmetry, aug-cc-pVTZ                      
        Integrals generated by Gateway/Seward, Wed Apr 16 15:36:12 2025        

   CASSCF title (first line only):
       O2, 1B1g 5S                                                             

  STATE IRREP:                4
  SPIN MULTIPLICITY:          1
  ACTIVE ELECTRONS:          12
  MAX RAS1 HOLES:             0
  MAX RAS3 ELECTRONS:         0
  NR OF CONFIG:              36

   Specific data for JOBIPH file JOBIPH10
   -------------------------------------

   Header from SEWARD:
                            O2, D2h symmetry, aug-cc-pVTZ                      
        Integrals generated by Gateway/Seward, Wed Apr 16 15:36:12 2025        

   CASSCF title (first line only):
       O2, 3B1g 6S                                                             

  STATE IRREP:                4
  SPIN MULTIPLICITY:          3
  ACTIVE ELECTRONS:          12
  MAX RAS1 HOLES:             0
  MAX RAS3 ELECTRONS:         0
  NR OF CONFIG:              48

   Specific data for JOBIPH file JOBIPH11
   -------------------------------------

   Header from SEWARD:
                            O2, D2h symmetry, aug-cc-pVTZ                      
        Integrals generated by Gateway/Seward, Wed Apr 16 15:36:12 2025        

   CASSCF title (first line only):
       O2, 5B1g 1S                                                             

  STATE IRREP:                4
  SPIN MULTIPLICITY:          5
  ACTIVE ELECTRONS:          12
  MAX RAS1 HOLES:             0
  MAX RAS3 ELECTRONS:         0
  NR OF CONFIG:              12

   Specific data for JOBIPH file JOBIPH12
   -------------------------------------

   Header from SEWARD:
                            O2, D2h symmetry, aug-cc-pVTZ                      
        Integrals generated by Gateway/Seward, Thu Apr 17 10:52:48 2025        

   CASSCF title (first line only):
       O2, 1B1u 3S                                                             

  STATE IRREP:                5
  SPIN MULTIPLICITY:          1
  ACTIVE ELECTRONS:          12
  MAX RAS1 HOLES:             0
  MAX RAS3 ELECTRONS:         0
  NR OF CONFIG:              44

   Specific data for JOBIPH file JOBIPH13
   -------------------------------------

   Header from SEWARD:
                            O2, D2h symmetry, aug-cc-pVTZ                      
        Integrals generated by Gateway/Seward, Wed Apr 16 15:36:12 2025        

   CASSCF title (first line only):
       O2, 3B1u 6S                                                             

  STATE IRREP:                5
  SPIN MULTIPLICITY:          3
  ACTIVE ELECTRONS:          12
  MAX RAS1 HOLES:             0
  MAX RAS3 ELECTRONS:         0
  NR OF CONFIG:              48

   Specific data for JOBIPH file JOBIPH14
   -------------------------------------

   Header from SEWARD:
                            O2, D2h symmetry, aug-cc-pVTZ                      
        Integrals generated by Gateway/Seward, Wed Apr 16 15:36:12 2025        

   CASSCF title (first line only):
       O2, 1B2g 5S                                                             

  STATE IRREP:                6
  SPIN MULTIPLICITY:          1
  ACTIVE ELECTRONS:          12
  MAX RAS1 HOLES:             0
  MAX RAS3 ELECTRONS:         0
  NR OF CONFIG:              40

   Specific data for JOBIPH file JOBIPH15
   -------------------------------------

   Header from SEWARD:
                            O2, D2h symmetry, aug-cc-pVTZ                      
        Integrals generated by Gateway/Seward, Wed Apr 16 15:36:12 2025        

   CASSCF title (first line only):
       O2, 3B2g 6S                                                             

  STATE IRREP:                6
  SPIN MULTIPLICITY:          3
  ACTIVE ELECTRONS:          12
  MAX RAS1 HOLES:             0
  MAX RAS3 ELECTRONS:         0
  NR OF CONFIG:              48

   Specific data for JOBIPH file JOBIPH16
   -------------------------------------

   Header from SEWARD:
                            O2, D2h symmetry, aug-cc-pVTZ                      
        Integrals generated by Gateway/Seward, Wed Apr 16 15:36:12 2025        

   CASSCF title (first line only):
       O2, 5B2g 1S                                                             

  STATE IRREP:                6
  SPIN MULTIPLICITY:          5
  ACTIVE ELECTRONS:          12
  MAX RAS1 HOLES:             0
  MAX RAS3 ELECTRONS:         0
  NR OF CONFIG:               8

   Specific data for JOBIPH file JOBIPH17
   -------------------------------------

   Header from SEWARD:
                            O2, D2h symmetry, aug-cc-pVTZ                      
        Integrals generated by Gateway/Seward, Wed Apr 16 15:36:12 2025        

   CASSCF title (first line only):
       O2, 1B3g 5S                                                             

  STATE IRREP:                7
  SPIN MULTIPLICITY:          1
  ACTIVE ELECTRONS:          12
  MAX RAS1 HOLES:             0
  MAX RAS3 ELECTRONS:         0
  NR OF CONFIG:              40

   Specific data for JOBIPH file JOBIPH18
   -------------------------------------

   Header from SEWARD:
                            O2, D2h symmetry, aug-cc-pVTZ                      
        Integrals generated by Gateway/Seward, Wed Apr 16 15:36:12 2025        

   CASSCF title (first line only):
       O2, 3B3g 6S                                                             

  STATE IRREP:                7
  SPIN MULTIPLICITY:          3
  ACTIVE ELECTRONS:          12
  MAX RAS1 HOLES:             0
  MAX RAS3 ELECTRONS:         0
  NR OF CONFIG:              48

   Specific data for JOBIPH file JOBIPH19
   -------------------------------------

   Header from SEWARD:
                            O2, D2h symmetry, aug-cc-pVTZ                      
        Integrals generated by Gateway/Seward, Wed Apr 16 15:36:12 2025        

   CASSCF title (first line only):
       O2, 5B3g 1S                                                             

  STATE IRREP:                7
  SPIN MULTIPLICITY:          5
  ACTIVE ELECTRONS:          12
  MAX RAS1 HOLES:             0
  MAX RAS3 ELECTRONS:         0
  NR OF CONFIG:               8

   Specific data for JOBIPH file JOBIPH20
   -------------------------------------

   Header from SEWARD:
                            O2, D2h symmetry, aug-cc-pVTZ                      
        Integrals generated by Gateway/Seward, Thu Apr 17 10:52:48 2025        

   CASSCF title (first line only):
       O2, 1Au 5S                                                              

  STATE IRREP:                8
  SPIN MULTIPLICITY:          1
  ACTIVE ELECTRONS:          12
  MAX RAS1 HOLES:             0
  MAX RAS3 ELECTRONS:         0
  NR OF CONFIG:              36

   Specific data for JOBIPH file JOBIPH21
   -------------------------------------

   Header from SEWARD:
                            O2, D2h symmetry, aug-cc-pVTZ                      
        Integrals generated by Gateway/Seward, Wed Apr 16 15:36:12 2025        

   CASSCF title (first line only):
       O2, 3Au 6S                                                              

  STATE IRREP:                8
  SPIN MULTIPLICITY:          3
  ACTIVE ELECTRONS:          12
  MAX RAS1 HOLES:             0
  MAX RAS3 ELECTRONS:         0
  NR OF CONFIG:              48

   Specific data for JOBIPH file JOBIPH22
   -------------------------------------

   Header from SEWARD:
                            O2, D2h symmetry, aug-cc-pVTZ                      
        Integrals generated by Gateway/Seward, Wed Apr 16 15:36:12 2025        

   CASSCF title (first line only):
       O2, 5Au 1S                                                              

  STATE IRREP:                8
  SPIN MULTIPLICITY:          5
  ACTIVE ELECTRONS:          12
  MAX RAS1 HOLES:             0
  MAX RAS3 ELECTRONS:         0
  NR OF CONFIG:              12
 ###############################################################################
 ###############################################################################
 ###                                                                         ###
 ###                                                                         ###
 ###    WARNING: EJOB used when HEFF is available, possible                  ###
 ###    extra interaction between states is ignored!                         ###
 ###                                                                         ###
 ###                                                                         ###
 ###############################################################################
 ###############################################################################

   The following data are common to all the states:
   ------------------------------------------------
   (note: frozen counts as inactive, deleted as secondary)

      Nr of irreps: 8

                 Total     No./Irrep 
      Irrep                  1   2   3   4   5   6   7   8
                            ag b3u b2u b1g b1u b2g b3g  au

      INACTIVE       2       1   0   0   0   1   0   0   0
      ACTIVE         8       2   1   1   0   2   1   1   0
      SECONDARY     82      16  10  10   5  16  10  10   5
      BASIS         92      19  11  11   5  19  11  11   5

      RAS1           0       0   0   0   0   0   0   0   0
      RAS2           8       2   1   1   0   2   1   1   0
      RAS3           0       0   0   0   0   0   0   0   0

        MATRIX ELEMENTS WILL BE COMPUTED FOR THE FOLLOWING ONE-ELECTRON OPERATORS, UNLESS ZERO BY SYMMETRY.
   (Herm=Hermitian, Anti=Antihermitian, Sing=Singlet operator, Trip=Triplet operator)
     MLTPL  0   1 (HERMSING)     MLTPL  1   1 (HERMSING)     MLTPL  1   2 (HERMSING)
     MLTPL  1   3 (HERMSING)     MLTPL  2   1 (HERMSING)     MLTPL  2   2 (HERMSING)
     MLTPL  2   3 (HERMSING)     MLTPL  2   4 (HERMSING)     MLTPL  2   5 (HERMSING)
     MLTPL  2   6 (HERMSING)     VELOCITY   1 (ANTISING)     VELOCITY   2 (ANTISING)
     VELOCITY   3 (ANTISING)     ANGMOM     1 (ANTISING)     ANGMOM     2 (ANTISING)
     ANGMOM     3 (ANTISING)     MLTPV  2   1 (ANTISING)     MLTPV  2   2 (ANTISING)
     MLTPV  2   3 (ANTISING)     MLTPV  2   4 (ANTISING)     MLTPV  2   5 (ANTISING)
     MLTPV  2   6 (ANTISING)

       EIGENSTATES OF A SPIN-FREE HAMILTONIAN WILL BE COMPUTED BASED ON:

  a Hamiltonian matrix assumed to be diagonal with energies read from the wavefunction file(s).

  Nr of states:                   99

   State:        1   2   3   4   5   6   7   8   9  10  11  12  13  14  15  16  17  18  19  20
  JobIph:        1   1   1   1   1   1   1   1   1   1   1   1   2   2   2   3   3   3   4   4
 Root nr:        1   2   3   4   5   6   7   8   9  10  11  12   1   2   3   1   2   3   1   2

   State:       21  22  23  24  25  26  27  28  29  30  31  32  33  34  35  36  37  38  39  40
  JobIph:        4   4   4   5   5   5   5   5   5   6   7   7   7   7   7   8   8   8   8   8
 Root nr:        3   4   5   1   2   3   4   5   6   1   1   2   3   4   5   1   2   3   4   5

   State:       41  42  43  44  45  46  47  48  49  50  51  52  53  54  55  56  57  58  59  60
  JobIph:        8   9  10  10  10  10  10  11  11  11  11  11  11  12  13  13  13  14  14  14
 Root nr:        6   1   1   2   3   4   5   1   2   3   4   5   6   1   1   2   3   1   2   3

   State:       61  62  63  64  65  66  67  68  69  70  71  72  73  74  75  76  77  78  79  80
  JobIph:       14  14  14  15  15  15  15  15  16  16  16  16  16  16  17  18  18  18  18  18
 Root nr:        4   5   6   1   2   3   4   5   1   2   3   4   5   6   1   1   2   3   4   5

   State:       81  82  83  84  85  86  87  88  89  90  91  92  93  94  95  96  97  98  99
  JobIph:       19  19  19  19  19  19  20  21  21  21  21  21  22  22  22  22  22  22  23
 Root nr:        1   2   3   4   5   6   1   1   2   3   4   5   1   2   3   4   5   6   1

  HAMILTONIAN MATRIX FOR THE ORIGINAL STATES:

  Diagonal, with energies
   -149.66313858   -149.63906895   -148.78797846   -148.75568785   -148.72531668
   -148.21040856   -148.15580583   -148.10560935   -148.05486286   -148.04659130
   -147.88598113   -147.69394949   -148.24468182   -148.21538450   -148.13582784
   -148.27234970   -148.26618444   -147.43103265   -148.97788111   -148.81614004
   -148.66485485   -148.07650656   -148.01973141   -149.05868074   -148.89312340
   -148.80181612   -148.15258375   -148.11019605   -148.09451188   -148.22786988
   -148.97788111   -148.81614004   -148.66485485   -148.07650656   -148.01973141
   -149.05868074   -148.89312340   -148.80181612   -148.15258375   -148.11019605
   -148.09451188   -148.22786988   -149.66313858   -148.75568785   -148.15580583
   -148.11443972   -148.05486286   -149.70323815   -148.81727970   -148.24468182
   -148.23785421   -148.20893566   -148.13876309   -148.37984076   -149.08544932
   -149.03336178   -148.30610339   -149.35071735   -149.34422961   -148.65732178
   -148.50123207   -148.46722120   -147.84275297   -149.21896324   -148.56386959
   -148.49838589   -148.45309139   -148.39197866   -149.26830456   -148.59720097
   -148.56916105   -148.53204051   -148.50905284   -148.48313362   -148.65793922
   -149.21896324   -148.56386959   -148.49838589   -148.45309139   -148.39197866
   -149.26830456   -148.59720097   -148.56916105   -148.53204051   -148.50905284
   -148.48313362   -148.65793922   -149.36086994   -149.08544932   -148.40979260
   -148.22077144   -147.85426784   -149.35071735   -149.17397946   -148.50123207
   -148.47396942   -148.25782897   -147.92300061   -148.60475405

      OVERLAP MATRIX FOR THE ORIGINAL STATES:

  Diagonal, with elements
      1.00000000      1.00000000      1.00000000      1.00000000      1.00000000
      1.00000000      1.00000000      1.00000000      1.00000000      1.00000000
      1.00000000      1.00000000      1.00000000      1.00000000      1.00000000
      1.00000000      1.00000000      1.00000000      1.00000000      1.00000000
      1.00000000      1.00000000      1.00000000      1.00000000      1.00000000
      1.00000000      1.00000000      1.00000000      1.00000000      1.00000000
      1.00000000      1.00000000      1.00000000      1.00000000      1.00000000
      1.00000000      1.00000000      1.00000000      1.00000000      1.00000000
      1.00000000      1.00000000      1.00000000      1.00000000      1.00000000
      1.00000000      1.00000000      1.00000000      1.00000000      1.00000000
      1.00000000      1.00000000      1.00000000      1.00000000      1.00000000
      1.00000000      1.00000000      1.00000000      1.00000000      1.00000000
      1.00000000      1.00000000      1.00000000      1.00000000      1.00000000
      1.00000000      1.00000000      1.00000000      1.00000000      1.00000000
      1.00000000      1.00000000      1.00000000      1.00000000      1.00000000
      1.00000000      1.00000000      1.00000000      1.00000000      1.00000000
      1.00000000      1.00000000      1.00000000      1.00000000      1.00000000
      1.00000000      1.00000000      1.00000000      1.00000000      1.00000000
      1.00000000      1.00000000      1.00000000      1.00000000      1.00000000
      1.00000000      1.00000000      1.00000000      1.00000000

::    RASSI State    1     Total energy:    -149.66313857831062
::    RASSI State    2     Total energy:    -149.63906894874438
::    RASSI State    3     Total energy:    -148.78797846199950
::    RASSI State    4     Total energy:    -148.75568784562279
::    RASSI State    5     Total energy:    -148.72531667534594
::    RASSI State    6     Total energy:    -148.21040855724186
::    RASSI State    7     Total energy:    -148.15580583405102
::    RASSI State    8     Total energy:    -148.10560935259733
::    RASSI State    9     Total energy:    -148.05486286287277
::    RASSI State   10     Total energy:    -148.04659130293342
::    RASSI State   11     Total energy:    -147.88598113055295
::    RASSI State   12     Total energy:    -147.69394948830839
::    RASSI State   13     Total energy:    -148.24468182306734
::    RASSI State   14     Total energy:    -148.21538450408138
::    RASSI State   15     Total energy:    -148.13582784324126
::    RASSI State   16     Total energy:    -148.27234969977954
::    RASSI State   17     Total energy:    -148.26618443848602
::    RASSI State   18     Total energy:    -147.43103264829560
::    RASSI State   19     Total energy:    -148.97788111256733
::    RASSI State   20     Total energy:    -148.81614003614095
::    RASSI State   21     Total energy:    -148.66485485395700
::    RASSI State   22     Total energy:    -148.07650656349313
::    RASSI State   23     Total energy:    -148.01973140908549
::    RASSI State   24     Total energy:    -149.05868074158613
::    RASSI State   25     Total energy:    -148.89312339946125
::    RASSI State   26     Total energy:    -148.80181612104417
::    RASSI State   27     Total energy:    -148.15258375057860
::    RASSI State   28     Total energy:    -148.11019605040858
::    RASSI State   29     Total energy:    -148.09451188280914
::    RASSI State   30     Total energy:    -148.22786988242402
::    RASSI State   31     Total energy:    -148.97788111256747
::    RASSI State   32     Total energy:    -148.81614003614112
::    RASSI State   33     Total energy:    -148.66485485395705
::    RASSI State   34     Total energy:    -148.07650656349304
::    RASSI State   35     Total energy:    -148.01973140908561
::    RASSI State   36     Total energy:    -149.05868074158599
::    RASSI State   37     Total energy:    -148.89312339946116
::    RASSI State   38     Total energy:    -148.80181612104408
::    RASSI State   39     Total energy:    -148.15258375057863
::    RASSI State   40     Total energy:    -148.11019605040858
::    RASSI State   41     Total energy:    -148.09451188280900
::    RASSI State   42     Total energy:    -148.22786988242413
::    RASSI State   43     Total energy:    -149.66313857831085
::    RASSI State   44     Total energy:    -148.75568784562282
::    RASSI State   45     Total energy:    -148.15580583405099
::    RASSI State   46     Total energy:    -148.11443972275146
::    RASSI State   47     Total energy:    -148.05486286287274
::    RASSI State   48     Total energy:    -149.70323815211589
::    RASSI State   49     Total energy:    -148.81727970290376
::    RASSI State   50     Total energy:    -148.24468182306745
::    RASSI State   51     Total energy:    -148.23785421311595
::    RASSI State   52     Total energy:    -148.20893565563972
::    RASSI State   53     Total energy:    -148.13876309100357
::    RASSI State   54     Total energy:    -148.37984076365913
::    RASSI State   55     Total energy:    -149.08544931916137
::    RASSI State   56     Total energy:    -149.03336178228983
::    RASSI State   57     Total energy:    -148.30610339291800
::    RASSI State   58     Total energy:    -149.35071734557826
::    RASSI State   59     Total energy:    -149.34422961253622
::    RASSI State   60     Total energy:    -148.65732177995346
::    RASSI State   61     Total energy:    -148.50123207224999
::    RASSI State   62     Total energy:    -148.46722119716932
::    RASSI State   63     Total energy:    -147.84275297462628
::    RASSI State   64     Total energy:    -149.21896324128673
::    RASSI State   65     Total energy:    -148.56386959197496
::    RASSI State   66     Total energy:    -148.49838589464662
::    RASSI State   67     Total energy:    -148.45309139479070
::    RASSI State   68     Total energy:    -148.39197865676965
::    RASSI State   69     Total energy:    -149.26830455734924
::    RASSI State   70     Total energy:    -148.59720097301070
::    RASSI State   71     Total energy:    -148.56916105072008
::    RASSI State   72     Total energy:    -148.53204050971615
::    RASSI State   73     Total energy:    -148.50905283524625
::    RASSI State   74     Total energy:    -148.48313361789272
::    RASSI State   75     Total energy:    -148.65793921663141
::    RASSI State   76     Total energy:    -149.21896324128659
::    RASSI State   77     Total energy:    -148.56386959197502
::    RASSI State   78     Total energy:    -148.49838589464636
::    RASSI State   79     Total energy:    -148.45309139479068
::    RASSI State   80     Total energy:    -148.39197865676985
::    RASSI State   81     Total energy:    -149.26830455734924
::    RASSI State   82     Total energy:    -148.59720097301073
::    RASSI State   83     Total energy:    -148.56916105072000
::    RASSI State   84     Total energy:    -148.53204050971624
::    RASSI State   85     Total energy:    -148.50905283524619
::    RASSI State   86     Total energy:    -148.48313361789261
::    RASSI State   87     Total energy:    -148.65793921663143
::    RASSI State   88     Total energy:    -149.36086993588557
::    RASSI State   89     Total energy:    -149.08544931916123
::    RASSI State   90     Total energy:    -148.40979259596520
::    RASSI State   91     Total energy:    -148.22077144496456
::    RASSI State   92     Total energy:    -147.85426783936904
::    RASSI State   93     Total energy:    -149.35071734557832
::    RASSI State   94     Total energy:    -149.17397946324630
::    RASSI State   95     Total energy:    -148.50123207224988
::    RASSI State   96     Total energy:    -148.47396942347513
::    RASSI State   97     Total energy:    -148.25782897048248
::    RASSI State   98     Total energy:    -147.92300061097774
::    RASSI State   99     Total energy:    -148.60475404710260



      ****************************************************************************************************
      *                                                                                                  *
      *                                         Spin-free section                                        *
      *                                                                                                  *
      *                 Note: index according to input order, order according to energy.                 *
      *                                                                                                  *
      ****************************************************************************************************



  SPIN-FREE ENERGIES:
  (Shifted by EMIN (a.u.) =       -149.7032381521)

 SF State       Relative EMIN(au)   Rel lowest level(eV)    D:o, cm**(-1)      L_eff   Abs_M

    48             0.0000000000        0.0000000000              0.0000         1.4     0.0
    43             0.0400995738        1.0911649911           8800.8392         2.2     2.0
     1             0.0400995738        1.0911649911           8800.8392         2.2     2.0
     2             0.0641692034        1.7461329780          14083.5123         1.4     0.0
    88             0.3423682162        9.3163137702          75141.1380         1.1     0.0
    93             0.3525208065        9.5925798264          77369.3741         2.1     2.0
    58             0.3525208065        9.5925798264          77369.3741         2.1     2.0
    59             0.3590085396        9.7691200361          78793.2669         1.1     0.0
    69             0.4349335948       11.8351460385          95456.8904         1.2     1.0
    81             0.4349335948       11.8351460385          95456.8904         1.2     1.0
    64             0.4842749108       13.1777916478         106286.0575         2.3     1.0
    76             0.4842749108       13.1777916478         106286.0575         2.3     1.0
    94             0.5292586889       14.4018626069         116158.8556         1.2     0.0
    55             0.6177888330       16.8108905520         135588.9764         2.1     2.0
    89             0.6177888330       16.8108905520         135588.9764         2.1     2.0
    24             0.6445574105       17.5393006556         141464.0001         1.8     1.0
    36             0.6445574105       17.5393006556         141464.0001         1.8     1.0
    56             0.6698763698       18.2282646364         147020.8693         1.1     0.0
    31             0.7253570395       19.7379705694         159197.4689         1.0     1.0
    19             0.7253570395       19.7379705694         159197.4689         1.0     1.0
    25             0.8101147527       22.0443454381         177799.6367         1.8     1.0
    37             0.8101147527       22.0443454381         177799.6367         1.8     1.0
    49             0.8859584492       24.1081575594         194445.4040         0.8     0.0
    32             0.8870981160       24.1391694719         194695.5320         1.5     1.0
    20             0.8870981160       24.1391694719         194695.5320         1.5     1.0
    26             0.9014220311       24.5289430581         197839.2680         1.3     1.0
    38             0.9014220311       24.5289430581         197839.2680         1.3     1.0
     3             0.9152596901       24.9054849431         200876.2831         1.8     0.0
    44             0.9475503065       25.7841573775         207963.2542         1.9     2.0
     4             0.9475503065       25.7841573775         207963.2542         1.9     2.0
     5             0.9779214768       26.6105990226         214628.9556         1.0     0.0
    33             1.0383832982       28.2558489976         227898.7916         1.9     1.0
    21             1.0383832982       28.2558489976         227898.7916         1.9     1.0
    87             1.0452989355       28.4440330760         229416.5985         1.5     1.0
    75             1.0452989355       28.4440330760         229416.5985         1.5     1.0
    60             1.0459163722       28.4608343839         229552.1102         1.5     0.0
    99             1.0984841050       29.8912752666         241089.3940         0.0     0.0
    82             1.1060371791       30.0968048830         242747.1022         1.3     1.0
    70             1.1060371791       30.0968048830         242747.1022         1.3     1.0
    71             1.1340771014       30.8598100388         248901.1538         1.2     1.0
    83             1.1340771014       30.8598100388         248901.1538         1.2     1.0
    77             1.1393685601       31.0037979665         250062.4947         1.7     1.0
    65             1.1393685601       31.0037979665         250062.4947         1.7     1.0
    84             1.1711976424       31.8699114177         257048.1708         2.8     3.0
    72             1.1711976424       31.8699114177         257048.1708         2.8     3.0
    73             1.1941853169       32.4954379066         262093.3822         1.1     1.0
    85             1.1941853169       32.4954379066         262093.3822         1.1     1.0
    61             1.2020060799       32.7082517092         263809.8413         1.9     2.0
    95             1.2020060799       32.7082517093         263809.8413         1.9     2.0
    66             1.2048522575       32.7857001473         264434.5051         1.5     1.0
    78             1.2048522575       32.7857001473         264434.5051         1.5     1.0
    74             1.2201045342       33.2007357412         267781.9929         1.0     1.0
    86             1.2201045342       33.2007357412         267781.9929         1.0     1.0
    96             1.2292687286       33.4501061751         269793.3011         1.3     0.0
    62             1.2360169549       33.6337347676         271274.3655         0.8     0.0
    67             1.2501467573       34.0182262777         274375.4987         3.1     3.0
    79             1.2501467573       34.0182262777         274375.4987         3.1     3.0
    90             1.2934455562       35.1964466166         283878.4866         1.6     0.0
    80             1.3112594953       35.6811885966         287788.1944         1.5     1.0
    68             1.3112594953       35.6811885966         287788.1944         1.5     1.0
    54             1.3233973885       36.0114774942         290452.1540         1.1     0.0
    57             1.3971347592       38.0179735702         306635.6362         1.4     0.0
    16             1.4308884523       38.9364583514         314043.7156         0.8     0.0
    17             1.4370537136       39.1042236578         315396.8340         0.7     0.0
    97             1.4454091816       39.3315875249         317230.6473         0.6     0.0
    50             1.4585563290       39.6893396313         320116.1126         1.8     2.0
    13             1.4585563290       39.6893396313         320116.1126         1.8     2.0
    51             1.4653839390       39.8751283628         321614.5998         0.5     0.0
    42             1.4753682697       40.1468158416         323805.9071         0.6     1.0
    30             1.4753682697       40.1468158417         323805.9071         0.6     1.0
    91             1.4824667072       40.3399741651         325363.8341         0.7     0.0
    14             1.4878536480       40.4865602942         326546.1309         0.7     0.0
     6             1.4928295949       40.6219627055         327638.2250         0.9     0.0
    52             1.4943024965       40.6620423999         327961.4896         1.1     0.0
     7             1.5474323181       42.1077784964         339622.1376         1.8     2.0
    45             1.5474323181       42.1077784964         339622.1376         1.8     2.0
    39             1.5506544015       42.1954558543         340329.3031         1.0     1.0
    27             1.5506544015       42.1954558543         340329.3031         1.0     1.0
    53             1.5644750611       42.5715351601         343362.5873         1.1     0.0
    15             1.5674103089       42.6514073207         344006.7997         1.5     0.0
    46             1.5887984294       43.2334077284         348700.9496         0.5     0.0
    40             1.5930421017       43.3488839357         349632.3280         2.6     3.0
    28             1.5930421017       43.3488839357         349632.3280         2.6     3.0
     8             1.5976287995       43.4736943414         350638.9918         0.9     0.0
    29             1.6087262693       43.7756718782         353074.6049         0.9     1.0
    41             1.6087262693       43.7756718782         353074.6049         0.9     1.0
    22             1.6267315886       44.2656215766         357026.3157         1.0     1.0
    34             1.6267315886       44.2656215766         357026.3157         1.0     1.0
     9             1.6483752892       44.8545766739         361776.5590         2.5     2.0
    47             1.6483752892       44.8545766739         361776.5590         2.5     2.0
    10             1.6566468492       45.0796572863         363591.9565         1.6     0.0
    35             1.6835067430       45.8105522323         369487.0218         2.6     3.0
    23             1.6835067430       45.8105522323         369487.0218         2.6     3.0
    98             1.7802375411       48.4427313415         390716.9781         0.9     0.0
    11             1.8172570216       49.4500827220         398841.8149         0.2     0.0
    92             1.8489703127       50.3130453375         405802.0778         0.8     0.0
    63             1.8604851775       50.6263807696         408329.2985         0.6     0.0
    12             2.0092886638       54.6755299105         440987.8888         0.1     0.0
    18             2.2722055038       61.8298615947         498691.4653         0.3     0.0

++ Dipole transition strengths (spin-free states):
   -----------------------------------------------
     for osc. strength at least  1.00000000E-05

      From   To        Osc. strength     Einstein coefficients Ax, Ay, Az (sec-1)    Total A (sec-1)
     -----------------------------------------------------------------------------------------------
        48   94       2.82155262E-01  0.00000000E+00  0.00000000E+00  2.53942289E+09  2.53942289E+09
        48   24       1.35558523E-01  0.00000000E+00  1.80950974E+09  0.00000000E+00  1.80950974E+09
        48   36       1.35558523E-01  1.80950974E+09  0.00000000E+00  0.00000000E+00  1.80950974E+09
        48   25       3.24257111E-02  0.00000000E+00  6.83743915E+08  0.00000000E+00  6.83743915E+08
        48   37       3.24257111E-02  6.83743915E+08  0.00000000E+00  0.00000000E+00  6.83743915E+08
        48   26       2.14766159E-02  0.00000000E+00  5.60703245E+08  0.00000000E+00  5.60703245E+08
        48   38       2.14766159E-02  5.60703245E+08  0.00000000E+00  0.00000000E+00  5.60703245E+08
        48   96       1.17113427E-02  0.00000000E+00  0.00000000E+00  5.68605742E+08  5.68605742E+08
        48   97       1.03121404E+00  0.00000000E+00  0.00000000E+00  6.92215496E+10  6.92215496E+10
        48   39       2.14857865E-04  1.65993916E+07  0.00000000E+00  0.00000000E+00  1.65993916E+07
        48   27       2.14857865E-04  0.00000000E+00  1.65993916E+07  0.00000000E+00  1.65993916E+07
        48   29       1.15293812E-03  0.00000000E+00  9.58696607E+07  0.00000000E+00  9.58696607E+07
        48   41       1.15293812E-03  9.58696607E+07  0.00000000E+00  0.00000000E+00  9.58696607E+07
        48   98       4.10476652E-02  0.00000000E+00  0.00000000E+00  4.17979761E+09  4.17979761E+09
        43   89       2.71063565E-01  0.00000000E+00  0.00000000E+00  2.90650192E+09  2.90650192E+09
        43   31       1.13997685E-01  1.71994463E+09  0.00000000E+00  0.00000000E+00  1.71994463E+09
        43   19       1.13997685E-01  0.00000000E+00  1.71994463E+09  0.00000000E+00  1.71994463E+09
        43   32       2.99083964E-02  6.89396918E+08  0.00000000E+00  0.00000000E+00  6.89396918E+08
        43   20       2.99083964E-02  0.00000000E+00  6.89396918E+08  0.00000000E+00  6.89396918E+08
        43   33       8.43559915E-02  2.70106353E+09  0.00000000E+00  0.00000000E+00  2.70106353E+09
        43   21       8.43559915E-02  0.00000000E+00  2.70106353E+09  0.00000000E+00  2.70106353E+09
        43   91       1.03602145E+00  0.00000000E+00  0.00000000E+00  6.92518320E+10  6.92518320E+10
        43   35       2.80844837E-04  2.43706819E+07  0.00000000E+00  0.00000000E+00  2.43706819E+07
        43   23       2.80844837E-04  0.00000000E+00  2.43706819E+07  0.00000000E+00  2.43706819E+07
         1   55       2.71063565E-01  0.00000000E+00  0.00000000E+00  2.90650192E+09  2.90650192E+09
         1   31       1.13997685E-01  0.00000000E+00  1.71994463E+09  0.00000000E+00  1.71994463E+09
         1   19       1.13997685E-01  1.71994463E+09  0.00000000E+00  0.00000000E+00  1.71994463E+09
         1   32       2.99083964E-02  0.00000000E+00  6.89396918E+08  0.00000000E+00  6.89396918E+08
         1   20       2.99083964E-02  6.89396918E+08  0.00000000E+00  0.00000000E+00  6.89396918E+08
         1   33       8.43559915E-02  0.00000000E+00  2.70106353E+09  0.00000000E+00  2.70106353E+09
         1   21       8.43559915E-02  2.70106353E+09  0.00000000E+00  0.00000000E+00  2.70106353E+09
         1   35       2.80844837E-04  0.00000000E+00  2.43706819E+07  0.00000000E+00  2.43706819E+07
         1   23       2.80844837E-04  2.43706819E+07  0.00000000E+00  0.00000000E+00  2.43706819E+07
         2   56       2.72744189E-01  0.00000000E+00  0.00000000E+00  3.21508022E+09  3.21508022E+09
         2   31       1.21637858E-01  0.00000000E+00  1.70855655E+09  0.00000000E+00  1.70855655E+09
         2   19       1.21637858E-01  1.70855655E+09  0.00000000E+00  0.00000000E+00  1.70855655E+09
         2   32       1.05559058E-02  0.00000000E+00  2.29684152E+08  0.00000000E+00  2.29684152E+08
         2   20       1.05559058E-02  2.29684152E+08  0.00000000E+00  0.00000000E+00  2.29684152E+08
         2   33       4.03661632E-02  0.00000000E+00  1.23094082E+09  0.00000000E+00  1.23094082E+09
         2   21       4.03661632E-02  1.23094082E+09  0.00000000E+00  0.00000000E+00  1.23094082E+09
         2   57       1.47593735E-01  0.00000000E+00  0.00000000E+00  8.42590702E+09  8.42590702E+09
         2   22       5.56513682E-04  4.36577611E+07  0.00000000E+00  0.00000000E+00  4.36577611E+07
         2   34       5.56513682E-04  0.00000000E+00  4.36577611E+07  0.00000000E+00  4.36577611E+07
        88   64       7.04096291E-03  0.00000000E+00  4.55563277E+06  0.00000000E+00  4.55563277E+06
        88   76       7.04096291E-03  4.55563277E+06  0.00000000E+00  0.00000000E+00  4.55563277E+06
        88   77       7.53518910E-02  1.53787861E+09  0.00000000E+00  0.00000000E+00  1.53787861E+09
        88   65       7.53518910E-02  0.00000000E+00  1.53787861E+09  0.00000000E+00  1.53787861E+09
        88   66       8.35465889E-02  0.00000000E+00  1.99683298E+09  0.00000000E+00  1.99683298E+09
        88   78       8.35465889E-02  1.99683298E+09  0.00000000E+00  0.00000000E+00  1.99683298E+09
        88   80       3.01001342E-02  9.07882005E+08  0.00000000E+00  0.00000000E+00  9.07882005E+08
        88   68       3.01001342E-02  0.00000000E+00  9.07882005E+08  0.00000000E+00  9.07882005E+08
        88   46       4.19336619E-02  0.00000000E+00  0.00000000E+00  2.09319461E+09  2.09319461E+09
        93   69       3.34858588E-03  0.00000000E+00  7.30737744E+05  0.00000000E+00  7.30737744E+05
        93   81       3.34858588E-03  7.30737744E+05  0.00000000E+00  0.00000000E+00  7.30737744E+05
        93   82       4.31938473E-02  7.87985376E+08  0.00000000E+00  0.00000000E+00  7.87985376E+08
        93   70       4.31938473E-02  0.00000000E+00  7.87985376E+08  0.00000000E+00  7.87985376E+08
        93   71       3.45236767E-02  0.00000000E+00  6.77561084E+08  0.00000000E+00  6.77561084E+08
        93   83       3.45236767E-02  6.77561084E+08  0.00000000E+00  0.00000000E+00  6.77561084E+08
        93   84       5.97006438E-03  1.28562676E+08  0.00000000E+00  0.00000000E+00  1.28562676E+08
        93   72       5.97006438E-03  0.00000000E+00  1.28562676E+08  0.00000000E+00  1.28562676E+08
        93   73       1.53728828E-02  0.00000000E+00  3.49900231E+08  0.00000000E+00  3.49900231E+08
        93   85       1.53728828E-02  3.49900231E+08  0.00000000E+00  0.00000000E+00  3.49900231E+08
        93   74       7.29877783E-03  0.00000000E+00  1.76515897E+08  0.00000000E+00  1.76515897E+08
        93   86       7.29877783E-03  1.76515897E+08  0.00000000E+00  0.00000000E+00  1.76515897E+08
        93   50       8.68969647E-03  0.00000000E+00  0.00000000E+00  3.41549490E+08  3.41549490E+08
        58   69       3.34858588E-03  7.30737744E+05  0.00000000E+00  0.00000000E+00  7.30737744E+05
        58   81       3.34858588E-03  0.00000000E+00  7.30737744E+05  0.00000000E+00  7.30737744E+05
        58   82       4.31938473E-02  0.00000000E+00  7.87985376E+08  0.00000000E+00  7.87985376E+08
        58   70       4.31938473E-02  7.87985376E+08  0.00000000E+00  0.00000000E+00  7.87985376E+08
        58   71       3.45236767E-02  6.77561084E+08  0.00000000E+00  0.00000000E+00  6.77561084E+08
        58   83       3.45236767E-02  0.00000000E+00  6.77561084E+08  0.00000000E+00  6.77561084E+08
        58   84       5.97006438E-03  0.00000000E+00  1.28562676E+08  0.00000000E+00  1.28562676E+08
        58   72       5.97006438E-03  1.28562676E+08  0.00000000E+00  0.00000000E+00  1.28562676E+08
        58   73       1.53728828E-02  3.49900231E+08  0.00000000E+00  0.00000000E+00  3.49900231E+08
        58   85       1.53728828E-02  0.00000000E+00  3.49900231E+08  0.00000000E+00  3.49900231E+08
        58   74       7.29877783E-03  1.76515897E+08  0.00000000E+00  0.00000000E+00  1.76515897E+08
        58   86       7.29877783E-03  0.00000000E+00  1.76515897E+08  0.00000000E+00  1.76515897E+08
        58   13       8.68969647E-03  0.00000000E+00  0.00000000E+00  3.41549490E+08  3.41549490E+08
        58   15       2.28827085E-03  0.00000000E+00  0.00000000E+00  1.08515523E+08  1.08515523E+08
        59   69       3.08664853E-03  5.71700136E+05  0.00000000E+00  0.00000000E+00  5.71700136E+05
        59   81       3.08664853E-03  0.00000000E+00  5.71700136E+05  0.00000000E+00  5.71700136E+05
        59   82       6.68374233E-02  0.00000000E+00  1.19840907E+09  0.00000000E+00  1.19840907E+09
        59   70       6.68374233E-02  1.19840907E+09  0.00000000E+00  0.00000000E+00  1.19840907E+09
        59   71       6.97331575E-03  1.34595474E+08  0.00000000E+00  0.00000000E+00  1.34595474E+08
        59   83       6.97331575E-03  0.00000000E+00  1.34595474E+08  0.00000000E+00  1.34595474E+08
        59   73       1.07307177E-02  2.40489696E+08  0.00000000E+00  0.00000000E+00  2.40489696E+08
        59   85       1.07307177E-02  0.00000000E+00  2.40489696E+08  0.00000000E+00  2.40489696E+08
        59   74       2.42773284E-02  5.78382195E+08  0.00000000E+00  0.00000000E+00  5.78382195E+08
        59   86       2.42773284E-02  0.00000000E+00  5.78382195E+08  0.00000000E+00  5.78382195E+08
        59   14       1.22690754E-02  0.00000000E+00  0.00000000E+00  5.02332678E+08  5.02332678E+08
        69   94       8.58659039E-04  0.00000000E+00  2.45463048E+05  0.00000000E+00  2.45463048E+05
        69   24       7.82683883E-02  0.00000000E+00  0.00000000E+00  1.10504132E+08  1.10504132E+08
        69   25       1.68114652E-04  0.00000000E+00  0.00000000E+00  7.60323628E+05  7.60323628E+05
        69   26       2.92321725E-01  0.00000000E+00  0.00000000E+00  2.04387222E+09  2.04387222E+09
        69   60       1.54733807E-01  1.85589769E+09  0.00000000E+00  0.00000000E+00  1.85589769E+09
        69   61       7.45611734E-03  1.40960174E+08  0.00000000E+00  0.00000000E+00  1.40960174E+08
        69   95       7.45611734E-03  0.00000000E+00  1.40960174E+08  0.00000000E+00  1.40960174E+08
        69   96       1.92391820E-02  0.00000000E+00  3.90036302E+08  0.00000000E+00  3.90036302E+08
        69   62       3.72468920E-02  7.67991377E+08  0.00000000E+00  0.00000000E+00  7.67991377E+08
        69   97       1.22486659E-02  0.00000000E+00  4.01838294E+08  0.00000000E+00  4.01838294E+08
        69   27       8.56372828E-04  0.00000000E+00  0.00000000E+00  3.42519126E+07  3.42519126E+07
        69   29       1.43379382E-03  0.00000000E+00  0.00000000E+00  6.34717359E+07  6.34717359E+07
        69   98       4.09733128E-05  0.00000000E+00  2.38260909E+06  0.00000000E+00  2.38260909E+06
        81   94       8.58659039E-04  2.45463048E+05  0.00000000E+00  0.00000000E+00  2.45463048E+05
        81   36       7.82683883E-02  0.00000000E+00  0.00000000E+00  1.10504132E+08  1.10504132E+08
        81   37       1.68114652E-04  0.00000000E+00  0.00000000E+00  7.60323628E+05  7.60323628E+05
        81   38       2.92321725E-01  0.00000000E+00  0.00000000E+00  2.04387222E+09  2.04387222E+09
        81   60       1.54733807E-01  0.00000000E+00  1.85589769E+09  0.00000000E+00  1.85589769E+09
        81   61       7.45611734E-03  0.00000000E+00  1.40960174E+08  0.00000000E+00  1.40960174E+08
        81   95       7.45611734E-03  1.40960174E+08  0.00000000E+00  0.00000000E+00  1.40960174E+08
        81   96       1.92391820E-02  3.90036302E+08  0.00000000E+00  0.00000000E+00  3.90036302E+08
        81   62       3.72468920E-02  0.00000000E+00  7.67991377E+08  0.00000000E+00  7.67991377E+08
        81   97       1.22486659E-02  4.01838294E+08  0.00000000E+00  0.00000000E+00  4.01838294E+08
        81   39       8.56372828E-04  0.00000000E+00  0.00000000E+00  3.42519126E+07  3.42519126E+07
        81   41       1.43379382E-03  0.00000000E+00  0.00000000E+00  6.34717359E+07  6.34717359E+07
        81   98       4.09733128E-05  2.38260909E+06  0.00000000E+00  0.00000000E+00  2.38260909E+06
        64   55       5.37254040E-04  3.07711467E+05  0.00000000E+00  0.00000000E+00  3.07711467E+05
        64   89       5.37254040E-04  0.00000000E+00  3.07711467E+05  0.00000000E+00  3.07711467E+05
        64   56       1.73974084E-04  1.92556514E+05  0.00000000E+00  0.00000000E+00  1.92556514E+05
        64   19       2.68516104E-02  0.00000000E+00  0.00000000E+00  5.01431087E+07  5.01431087E+07
        64   20       1.34690794E-03  0.00000000E+00  0.00000000E+00  7.02227376E+06  7.02227376E+06
        64   21       4.14005153E-01  0.00000000E+00  0.00000000E+00  4.08419131E+09  4.08419131E+09
        64   90       3.11412809E-02  0.00000000E+00  6.55130161E+08  0.00000000E+00  6.55130161E+08
        64   57       1.54936768E-01  4.14833275E+09  0.00000000E+00  0.00000000E+00  4.14833275E+09
        64   91       8.39614630E-03  0.00000000E+00  2.68793568E+08  0.00000000E+00  2.68793568E+08
        64   22       5.90672869E-04  0.00000000E+00  0.00000000E+00  2.47706491E+07  2.47706491E+07
        76   55       5.37254040E-04  0.00000000E+00  3.07711467E+05  0.00000000E+00  3.07711467E+05
        76   89       5.37254040E-04  3.07711467E+05  0.00000000E+00  0.00000000E+00  3.07711467E+05
        76   56       1.73974084E-04  0.00000000E+00  1.92556514E+05  0.00000000E+00  1.92556514E+05
        76   31       2.68516104E-02  0.00000000E+00  0.00000000E+00  5.01431087E+07  5.01431087E+07
        76   32       1.34690794E-03  0.00000000E+00  0.00000000E+00  7.02227376E+06  7.02227376E+06
        76   33       4.14005153E-01  0.00000000E+00  0.00000000E+00  4.08419131E+09  4.08419131E+09
        76   90       3.11412809E-02  6.55130161E+08  0.00000000E+00  0.00000000E+00  6.55130161E+08
        76   57       1.54936768E-01  0.00000000E+00  4.14833275E+09  0.00000000E+00  4.14833275E+09
        76   91       8.39614630E-03  2.68793568E+08  0.00000000E+00  0.00000000E+00  2.68793568E+08
        76   34       5.90672869E-04  0.00000000E+00  0.00000000E+00  2.47706491E+07  2.47706491E+07
        94   49       3.10487086E-01  0.00000000E+00  0.00000000E+00  1.26928767E+09  1.26928767E+09
        94   82       2.66519539E-02  2.84877434E+08  0.00000000E+00  0.00000000E+00  2.84877434E+08
        94   70       2.66519539E-02  0.00000000E+00  2.84877434E+08  0.00000000E+00  2.84877434E+08
        94   71       2.48321960E-02  0.00000000E+00  2.91860968E+08  0.00000000E+00  2.91860968E+08
        94   83       2.48321960E-02  2.91860968E+08  0.00000000E+00  0.00000000E+00  2.91860968E+08
        94   73       1.02489458E-05  0.00000000E+00  1.45592007E+05  0.00000000E+00  1.45592007E+05
        94   85       1.02489458E-05  1.45592007E+05  0.00000000E+00  0.00000000E+00  1.45592007E+05
        94   74       4.78150296E-02  0.00000000E+00  7.33225588E+08  0.00000000E+00  7.33225588E+08
        94   86       4.78150296E-02  7.33225588E+08  0.00000000E+00  0.00000000E+00  7.33225588E+08
        94   51       2.36130314E-03  0.00000000E+00  0.00000000E+00  6.64860523E+07  6.64860523E+07
        94   52       3.29860758E-02  0.00000000E+00  0.00000000E+00  9.87041909E+08  9.87041909E+08
        94   53       8.80531141E-02  0.00000000E+00  0.00000000E+00  3.03192090E+09  3.03192090E+09
        55    4       3.07237106E-01  0.00000000E+00  0.00000000E+00  1.07345632E+09  1.07345632E+09
        55   77       1.26365981E-02  0.00000000E+00  1.10454258E+08  0.00000000E+00  1.10454258E+08
        55   65       1.26365981E-02  1.10454258E+08  0.00000000E+00  0.00000000E+00  1.10454258E+08
        55   66       1.64580178E-03  1.82246190E+07  0.00000000E+00  0.00000000E+00  1.82246190E+07
        55   78       1.64580178E-03  0.00000000E+00  1.82246190E+07  0.00000000E+00  1.82246190E+07
        55   67       4.15380736E-03  5.33682749E+07  0.00000000E+00  0.00000000E+00  5.33682749E+07
        55   79       4.15380736E-03  0.00000000E+00  5.33682749E+07  0.00000000E+00  5.33682749E+07
        55   80       7.72267706E-03  0.00000000E+00  1.19325962E+08  0.00000000E+00  1.19325962E+08
        55   68       7.72267706E-03  1.19325962E+08  0.00000000E+00  0.00000000E+00  1.19325962E+08
        55    7       5.39958433E-02  0.00000000E+00  0.00000000E+00  1.49935362E+09  1.49935362E+09
        55    9       4.72810980E-02  0.00000000E+00  0.00000000E+00  1.61349379E+09  1.61349379E+09
        89   44       3.07237106E-01  0.00000000E+00  0.00000000E+00  1.07345632E+09  1.07345632E+09
        89   77       1.26365981E-02  1.10454258E+08  0.00000000E+00  0.00000000E+00  1.10454258E+08
        89   65       1.26365981E-02  0.00000000E+00  1.10454258E+08  0.00000000E+00  1.10454258E+08
        89   66       1.64580178E-03  0.00000000E+00  1.82246190E+07  0.00000000E+00  1.82246190E+07
        89   78       1.64580178E-03  1.82246190E+07  0.00000000E+00  0.00000000E+00  1.82246190E+07
        89   67       4.15380736E-03  0.00000000E+00  5.33682749E+07  0.00000000E+00  5.33682749E+07
        89   79       4.15380736E-03  5.33682749E+07  0.00000000E+00  0.00000000E+00  5.33682749E+07
        89   80       7.72267706E-03  1.19325962E+08  0.00000000E+00  0.00000000E+00  1.19325962E+08
        89   68       7.72267706E-03  0.00000000E+00  1.19325962E+08  0.00000000E+00  1.19325962E+08
        89   45       5.39958433E-02  0.00000000E+00  0.00000000E+00  1.49935362E+09  1.49935362E+09
        89   47       4.72810980E-02  0.00000000E+00  0.00000000E+00  1.61349379E+09  1.61349379E+09
        24   49       2.48298393E-04  0.00000000E+00  4.64903763E+05  0.00000000E+00  4.64903763E+05
        24   70       1.95115597E-02  0.00000000E+00  0.00000000E+00  1.33508280E+08  1.33508280E+08
        24   71       6.46756496E-03  0.00000000E+00  0.00000000E+00  4.97957198E+07  4.97957198E+07
        24   73       5.21758097E-03  0.00000000E+00  0.00000000E+00  5.06427908E+07  5.06427908E+07
        24   74       2.79112602E-02  0.00000000E+00  0.00000000E+00  2.97065423E+08  2.97065423E+08
        24   50       1.01798683E-03  0.00000000E+00  2.16720852E+07  0.00000000E+00  2.16720852E+07
        24   13       1.01798683E-03  2.16720852E+07  0.00000000E+00  0.00000000E+00  2.16720852E+07
        24   51       1.13311361E-04  0.00000000E+00  2.45294102E+06  0.00000000E+00  2.45294102E+06
        24   14       1.45897971E-02  3.33365352E+08  0.00000000E+00  0.00000000E+00  3.33365352E+08
        24   52       2.81684397E-02  0.00000000E+00  6.53508135E+08  0.00000000E+00  6.53508135E+08
        24   53       1.65213418E-03  0.00000000E+00  4.49214848E+07  0.00000000E+00  4.49214848E+07
        24   15       3.13029572E-03  8.56566748E+07  0.00000000E+00  0.00000000E+00  8.56566748E+07
        36   49       2.48298393E-04  4.64903763E+05  0.00000000E+00  0.00000000E+00  4.64903763E+05
        36   82       1.95115597E-02  0.00000000E+00  0.00000000E+00  1.33508280E+08  1.33508280E+08
        36   83       6.46756496E-03  0.00000000E+00  0.00000000E+00  4.97957198E+07  4.97957198E+07
        36   85       5.21758097E-03  0.00000000E+00  0.00000000E+00  5.06427908E+07  5.06427908E+07
        36   86       2.79112602E-02  0.00000000E+00  0.00000000E+00  2.97065423E+08  2.97065423E+08
        36   50       1.01798683E-03  2.16720852E+07  0.00000000E+00  0.00000000E+00  2.16720852E+07
        36   13       1.01798683E-03  0.00000000E+00  2.16720852E+07  0.00000000E+00  2.16720852E+07
        36   51       1.13311361E-04  2.45294102E+06  0.00000000E+00  0.00000000E+00  2.45294102E+06
        36   14       1.45897971E-02  0.00000000E+00  3.33365352E+08  0.00000000E+00  3.33365352E+08
        36   52       2.81684397E-02  6.53508135E+08  0.00000000E+00  0.00000000E+00  6.53508135E+08
        36   53       1.65213418E-03  4.49214848E+07  0.00000000E+00  0.00000000E+00  4.49214848E+07
        36   15       3.13029572E-03  0.00000000E+00  8.56566748E+07  0.00000000E+00  8.56566748E+07
        56    3       8.73706066E-03  0.00000000E+00  0.00000000E+00  1.69030981E+07  1.69030981E+07
        56    5       2.88687777E-01  0.00000000E+00  0.00000000E+00  8.80172731E+08  8.80172731E+08
        56   77       2.38574980E-03  0.00000000E+00  1.68963355E+07  0.00000000E+00  1.68963355E+07
        56   65       2.38574980E-03  1.68963355E+07  0.00000000E+00  0.00000000E+00  1.68963355E+07
        56   66       2.53668426E-03  2.33262923E+07  0.00000000E+00  0.00000000E+00  2.33262923E+07
        56   78       2.53668426E-03  0.00000000E+00  2.33262923E+07  0.00000000E+00  2.33262923E+07
        56   80       1.07287541E-02  0.00000000E+00  1.41806204E+08  0.00000000E+00  1.41806204E+08
        56   68       1.07287541E-02  1.41806204E+08  0.00000000E+00  0.00000000E+00  1.41806204E+08
        56    6       3.82128107E-02  0.00000000E+00  0.00000000E+00  8.31515154E+08  8.31515154E+08
        56    8       8.20374883E-03  0.00000000E+00  0.00000000E+00  2.26875416E+08  2.26875416E+08
        56   10       3.19787030E-02  0.00000000E+00  0.00000000E+00  1.00046990E+09  1.00046990E+09
        56   11       1.86245096E-02  0.00000000E+00  0.00000000E+00  7.87790561E+08  7.87790561E+08
        56   12       3.81312357E-01  0.00000000E+00  0.00000000E+00  2.19796273E+10  2.19796273E+10
        31    3       1.79222352E-02  0.00000000E+00  2.07665861E+07  0.00000000E+00  2.07665861E+07
        31   44       2.32473284E-03  3.68761627E+06  0.00000000E+00  0.00000000E+00  3.68761627E+06
        31    4       2.32473284E-03  0.00000000E+00  3.68761627E+06  0.00000000E+00  3.68761627E+06
        31    5       1.20971368E-02  0.00000000E+00  2.47935020E+07  0.00000000E+00  2.47935020E+07
        31   77       1.12601245E-02  0.00000000E+00  0.00000000E+00  6.20124557E+07  6.20124557E+07
        31   78       2.62389283E-03  0.00000000E+00  0.00000000E+00  1.93832027E+07  1.93832027E+07
        31   80       2.88287863E-03  0.00000000E+00  0.00000000E+00  3.17971268E+07  3.17971268E+07
        31    6       1.27530078E-01  0.00000000E+00  2.41351064E+09  0.00000000E+00  2.41351064E+09
        31    7       2.10924474E-02  0.00000000E+00  4.57995313E+08  0.00000000E+00  4.57995313E+08
        31   45       2.10924474E-02  4.57995313E+08  0.00000000E+00  0.00000000E+00  4.57995313E+08
        31   46       1.14933079E-02  2.75309786E+08  0.00000000E+00  0.00000000E+00  2.75309786E+08
        31    8       1.41858182E-01  0.00000000E+00  3.46791861E+09  0.00000000E+00  3.46791861E+09
        31   10       4.18499260E-03  0.00000000E+00  1.16620602E+08  0.00000000E+00  1.16620602E+08
        31   11       3.31354711E-05  0.00000000E+00  1.26931599E+06  0.00000000E+00  1.26931599E+06
        31   12       6.58697339E-03  0.00000000E+00  3.48883623E+08  0.00000000E+00  3.48883623E+08
        19    3       1.79222352E-02  2.07665861E+07  0.00000000E+00  0.00000000E+00  2.07665861E+07
        19   44       2.32473284E-03  0.00000000E+00  3.68761627E+06  0.00000000E+00  3.68761627E+06
        19    4       2.32473284E-03  3.68761627E+06  0.00000000E+00  0.00000000E+00  3.68761627E+06
        19    5       1.20971368E-02  2.47935020E+07  0.00000000E+00  0.00000000E+00  2.47935020E+07
        19   65       1.12601245E-02  0.00000000E+00  0.00000000E+00  6.20124557E+07  6.20124557E+07
        19   66       2.62389283E-03  0.00000000E+00  0.00000000E+00  1.93832027E+07  1.93832027E+07
        19   68       2.88287863E-03  0.00000000E+00  0.00000000E+00  3.17971268E+07  3.17971268E+07
        19    6       1.27530078E-01  2.41351064E+09  0.00000000E+00  0.00000000E+00  2.41351064E+09
        19    7       2.10924474E-02  4.57995313E+08  0.00000000E+00  0.00000000E+00  4.57995313E+08
        19   45       2.10924474E-02  0.00000000E+00  4.57995313E+08  0.00000000E+00  4.57995313E+08
        19   46       1.14933079E-02  0.00000000E+00  2.75309786E+08  0.00000000E+00  2.75309786E+08
        19    8       1.41858182E-01  3.46791861E+09  0.00000000E+00  0.00000000E+00  3.46791861E+09
        19   10       4.18499260E-03  1.16620602E+08  0.00000000E+00  0.00000000E+00  1.16620602E+08
        19   11       3.31354711E-05  1.26931599E+06  0.00000000E+00  0.00000000E+00  1.26931599E+06
        19   12       6.58697339E-03  3.48883623E+08  0.00000000E+00  0.00000000E+00  3.48883623E+08
        25   49       9.34324438E-05  0.00000000E+00  1.72682201E+04  0.00000000E+00  1.72682201E+04
        25   70       5.76705158E-03  0.00000000E+00  0.00000000E+00  1.62263365E+07  1.62263365E+07
        25   71       4.43426341E-04  0.00000000E+00  0.00000000E+00  1.49527630E+06  1.49527630E+06
        25   74       7.59630834E-05  0.00000000E+00  0.00000000E+00  4.10260337E+05  4.10260337E+05
        25   50       6.72439725E-02  0.00000000E+00  9.08460295E+08  0.00000000E+00  9.08460295E+08
        25   13       6.72439725E-02  9.08460295E+08  0.00000000E+00  0.00000000E+00  9.08460295E+08
        25   51       4.62339230E-02  0.00000000E+00  6.37839073E+08  0.00000000E+00  6.37839073E+08
        25   14       6.70567644E-02  9.89642410E+08  0.00000000E+00  0.00000000E+00  9.89642410E+08
        25   52       5.23426157E-03  0.00000000E+00  7.87257642E+07  0.00000000E+00  7.87257642E+07
        25   53       1.61888372E-01  0.00000000E+00  2.95994878E+09  0.00000000E+00  2.95994878E+09
        25   15       8.49263806E-03  1.56489180E+08  0.00000000E+00  0.00000000E+00  1.56489180E+08
        37   49       9.34324438E-05  1.72682201E+04  0.00000000E+00  0.00000000E+00  1.72682201E+04
        37   82       5.76705158E-03  0.00000000E+00  0.00000000E+00  1.62263365E+07  1.62263365E+07
        37   83       4.43426341E-04  0.00000000E+00  0.00000000E+00  1.49527630E+06  1.49527630E+06
        37   86       7.59630834E-05  0.00000000E+00  0.00000000E+00  4.10260337E+05  4.10260337E+05
        37   50       6.72439725E-02  9.08460295E+08  0.00000000E+00  0.00000000E+00  9.08460295E+08
        37   13       6.72439725E-02  0.00000000E+00  9.08460295E+08  0.00000000E+00  9.08460295E+08
        37   51       4.62339230E-02  6.37839073E+08  0.00000000E+00  0.00000000E+00  6.37839073E+08
        37   14       6.70567644E-02  0.00000000E+00  9.89642410E+08  0.00000000E+00  9.89642410E+08
        37   52       5.23426157E-03  7.87257642E+07  0.00000000E+00  0.00000000E+00  7.87257642E+07
        37   53       1.61888372E-01  2.95994878E+09  0.00000000E+00  0.00000000E+00  2.95994878E+09
        37   15       8.49263806E-03  0.00000000E+00  1.56489180E+08  0.00000000E+00  1.56489180E+08
        49   26       6.77501432E-04  0.00000000E+00  5.20524644E+03  0.00000000E+00  5.20524644E+03
        49   38       6.77501432E-04  5.20524644E+03  0.00000000E+00  0.00000000E+00  5.20524644E+03
        49   96       2.58650128E-05  0.00000000E+00  0.00000000E+00  9.79483661E+04  9.79483661E+04
        49   97       9.47253800E-04  0.00000000E+00  0.00000000E+00  9.52578845E+06  9.52578845E+06
        49   39       6.46883005E-05  9.18296000E+05  0.00000000E+00  0.00000000E+00  9.18296000E+05
        49   27       6.46883005E-05  0.00000000E+00  9.18296000E+05  0.00000000E+00  9.18296000E+05
        49   29       3.82523311E-03  0.00000000E+00  6.42046385E+07  0.00000000E+00  6.42046385E+07
        49   41       3.82523311E-03  6.42046385E+07  0.00000000E+00  0.00000000E+00  6.42046385E+07
        49   98       1.22815583E-04  0.00000000E+00  0.00000000E+00  3.15580754E+06  3.15580754E+06
        32    3       7.45371715E-05  0.00000000E+00  1.89931783E+03  0.00000000E+00  1.89931783E+03
        32   44       1.37862646E-04  1.61875670E+04  0.00000000E+00  0.00000000E+00  1.61875670E+04
        32    4       1.37862646E-04  0.00000000E+00  1.61875670E+04  0.00000000E+00  1.61875670E+04
        32    5       1.14835573E-04  0.00000000E+00  3.04356417E+04  0.00000000E+00  3.04356417E+04
        32   77       8.03625981E-03  0.00000000E+00  0.00000000E+00  1.64322713E+07  1.64322713E+07
        32   78       1.08853086E-03  0.00000000E+00  0.00000000E+00  3.53129556E+06  3.53129556E+06
        32   80       1.03740836E-03  0.00000000E+00  0.00000000E+00  5.99684566E+06  5.99684566E+06
        32    6       1.27176201E-02  0.00000000E+00  1.49926022E+08  0.00000000E+00  1.49926022E+08
        32    7       4.99952975E-02  0.00000000E+00  7.00434653E+08  0.00000000E+00  7.00434653E+08
        32   45       4.99952975E-02  7.00434653E+08  0.00000000E+00  0.00000000E+00  7.00434653E+08
        32   46       1.97822484E-01  3.12960751E+09  0.00000000E+00  0.00000000E+00  3.12960751E+09
        32    8       2.88798672E-02  0.00000000E+00  4.68459175E+08  0.00000000E+00  4.68459175E+08
        32    9       2.32522410E-02  0.00000000E+00  4.32973498E+08  0.00000000E+00  4.32973498E+08
        32   47       2.32522410E-02  4.32973498E+08  0.00000000E+00  0.00000000E+00  4.32973498E+08
        32   10       1.85685661E-02  0.00000000E+00  3.53314537E+08  0.00000000E+00  3.53314537E+08
        32   11       9.71572129E-02  0.00000000E+00  2.70084853E+09  0.00000000E+00  2.70084853E+09
        32   12       1.08677405E-02  0.00000000E+00  4.39727224E+08  0.00000000E+00  4.39727224E+08
        20    3       7.45371715E-05  1.89931783E+03  0.00000000E+00  0.00000000E+00  1.89931783E+03
        20   44       1.37862646E-04  0.00000000E+00  1.61875670E+04  0.00000000E+00  1.61875670E+04
        20    4       1.37862646E-04  1.61875670E+04  0.00000000E+00  0.00000000E+00  1.61875670E+04
        20    5       1.14835573E-04  3.04356417E+04  0.00000000E+00  0.00000000E+00  3.04356417E+04
        20   65       8.03625981E-03  0.00000000E+00  0.00000000E+00  1.64322713E+07  1.64322713E+07
        20   66       1.08853086E-03  0.00000000E+00  0.00000000E+00  3.53129556E+06  3.53129556E+06
        20   68       1.03740836E-03  0.00000000E+00  0.00000000E+00  5.99684566E+06  5.99684566E+06
        20    6       1.27176201E-02  1.49926022E+08  0.00000000E+00  0.00000000E+00  1.49926022E+08
        20    7       4.99952975E-02  7.00434653E+08  0.00000000E+00  0.00000000E+00  7.00434653E+08
        20   45       4.99952975E-02  0.00000000E+00  7.00434653E+08  0.00000000E+00  7.00434653E+08
        20   46       1.97822484E-01  0.00000000E+00  3.12960751E+09  0.00000000E+00  3.12960751E+09
        20    8       2.88798672E-02  4.68459175E+08  0.00000000E+00  0.00000000E+00  4.68459175E+08
        20    9       2.32522410E-02  4.32973498E+08  0.00000000E+00  0.00000000E+00  4.32973498E+08
        20   47       2.32522410E-02  0.00000000E+00  4.32973498E+08  0.00000000E+00  4.32973498E+08
        20   10       1.85685661E-02  3.53314537E+08  0.00000000E+00  0.00000000E+00  3.53314537E+08
        20   11       9.71572129E-02  2.70084853E+09  0.00000000E+00  0.00000000E+00  2.70084853E+09
        20   12       1.08677405E-02  4.39727224E+08  0.00000000E+00  0.00000000E+00  4.39727224E+08
        26   70       1.47887122E-01  0.00000000E+00  0.00000000E+00  1.98937568E+08  1.98937568E+08
        26   71       7.28544845E-02  0.00000000E+00  0.00000000E+00  1.26704552E+08  1.26704552E+08
        26   73       8.80266004E-03  0.00000000E+00  0.00000000E+00  2.42414190E+07  2.42414190E+07
        26   74       8.76890994E-02  0.00000000E+00  0.00000000E+00  2.86136284E+08  2.86136284E+08
        26   50       1.89685820E-03  0.00000000E+00  1.89175783E+07  0.00000000E+00  1.89175783E+07
        26   13       1.89685820E-03  1.89175783E+07  0.00000000E+00  0.00000000E+00  1.89175783E+07
        26   51       3.31395114E-03  0.00000000E+00  3.38654247E+07  0.00000000E+00  3.38654247E+07
        26   14       3.94552106E-04  4.35963371E+06  0.00000000E+00  0.00000000E+00  4.35963371E+06
        26   52       7.18241743E-05  0.00000000E+00  8.11177335E+05  0.00000000E+00  8.11177335E+05
        26   53       3.99368830E-05  0.00000000E+00  5.64133093E+05  0.00000000E+00  5.64133093E+05
        26   15       3.42907741E-03  4.88676374E+07  0.00000000E+00  0.00000000E+00  4.88676374E+07
        38   82       1.47887122E-01  0.00000000E+00  0.00000000E+00  1.98937568E+08  1.98937568E+08
        38   83       7.28544845E-02  0.00000000E+00  0.00000000E+00  1.26704552E+08  1.26704552E+08
        38   85       8.80266004E-03  0.00000000E+00  0.00000000E+00  2.42414190E+07  2.42414190E+07
        38   86       8.76890994E-02  0.00000000E+00  0.00000000E+00  2.86136284E+08  2.86136284E+08
        38   50       1.89685820E-03  1.89175783E+07  0.00000000E+00  0.00000000E+00  1.89175783E+07
        38   13       1.89685820E-03  0.00000000E+00  1.89175783E+07  0.00000000E+00  1.89175783E+07
        38   51       3.31395114E-03  3.38654247E+07  0.00000000E+00  0.00000000E+00  3.38654247E+07
        38   14       3.94552106E-04  0.00000000E+00  4.35963371E+06  0.00000000E+00  4.35963371E+06
        38   52       7.18241743E-05  8.11177335E+05  0.00000000E+00  0.00000000E+00  8.11177335E+05
        38   53       3.99368830E-05  5.64133093E+05  0.00000000E+00  0.00000000E+00  5.64133093E+05
        38   15       3.42907741E-03  0.00000000E+00  4.88676374E+07  0.00000000E+00  4.88676374E+07
         3   33       4.60437041E-04  0.00000000E+00  2.24266190E+05  0.00000000E+00  2.24266190E+05
         3   21       4.60437041E-04  2.24266190E+05  0.00000000E+00  0.00000000E+00  2.24266190E+05
         3   57       4.73020556E-01  0.00000000E+00  0.00000000E+00  3.52906626E+09  3.52906626E+09
         3   22       8.45222272E-05  1.37466640E+06  0.00000000E+00  0.00000000E+00  1.37466640E+06
         3   34       8.45222272E-05  0.00000000E+00  1.37466640E+06  0.00000000E+00  1.37466640E+06
[...]
        21    9          9568.886944  3.11146630E-03  3.21801912E-05
        21   47          9568.886948  3.11146630E-03  3.21801912E-05
        21   10           816.092951  1.07661404E-02  1.17522358E-03
        21   11           683.449282  4.94390380E-03  6.31043248E-04
        21   12            71.817991  1.49433479E-01  8.69719628E-02
        87   99            95.151368  2.92521325E-03  1.49894581E-03
        87   42            26.452434  2.09353223E-01  1.65558871E-01
        75   99            95.151368  2.92521325E-03  1.49894581E-03
        75   30            26.452434  2.09353223E-01  1.65558871E-01
        60   82            70.421098  1.17873251E-03  3.98504488E-03
        60   70            70.421098  1.17873251E-03  3.98504488E-03
        60   71            63.427057  4.73770199E-04  1.29541175E-03
        60   83            63.427057  4.73770199E-04  1.29541175E-03
        60   73            79.175218  1.83554549E-05  8.81423624E-05
        60   85            79.175218  1.83554549E-05  8.81423624E-05
        60   74            70.396937  1.18470145E-04  4.00195558E-04
        60   86            70.396937  1.18470145E-04  4.00195558E-04
        60   14            32.475839  3.22614335E-03  4.77776146E-03
        99   54            49.063058  6.36472542E-02  1.24953034E-01
        82   61            17.286954  3.21664030E-04  2.74253887E-04
        82   95            17.286954  3.21664030E-04  2.74253887E-04
        82   96           517.268151  3.90675818E-04  6.32911024E-05
        82   62            41.966879  4.78457870E-04  3.37020770E-04
        82   97           540.970616  8.97393868E-04  1.40005461E-04
        82   39            42.786319  7.33733746E-02  5.13868380E-02
        82   41            50.042329  1.17472052E-02  7.82926080E-03
        82   98            18.733511  8.90003568E-03  1.09516675E-02
        82   63            84.323755  1.32277442E-03  8.43808235E-03
        70   61            17.286954  3.21664030E-04  2.74253887E-04
        70   95            17.286954  3.21664030E-04  2.74253887E-04
        70   96           517.268151  3.90675818E-04  6.32911024E-05
        70   62            41.966879  4.78457870E-04  3.37020770E-04
        70   97           540.970616  8.97393868E-04  1.40005461E-04
        70   27            42.786319  7.33733746E-02  5.13868380E-02
        70   29            50.042329  1.17472052E-02  7.82926080E-03
        70   98            18.733511  8.90003568E-03  1.09516675E-02
        70   63            84.323755  1.32277442E-03  8.43808235E-03
        71   61            92.172312  8.19615826E-04  4.26500476E-04
        71   95            92.172312  8.19615826E-04  4.26500476E-04
        71   96            71.010714  9.07866854E-04  3.13173237E-03
        71   62            22.476205  1.46859059E-04  1.89437398E-04
        71   97           355.238764  2.00771650E-03  4.41024943E-04
        71   27            19.339053  1.15676533E-01  9.69309967E-02
        71   29            48.002649  7.95458780E-04  1.52980635E-03
        71   98           100.730710  3.69202917E-02  1.83929463E-02
        71   63          1173.208181  6.62000788E-04  5.19947011E-05
        83   61            92.172312  8.19615826E-04  4.26500476E-04
        83   95            92.172312  8.19615826E-04  4.26500476E-04
        83   96            71.010714  9.07866854E-04  3.13173237E-03
        83   62            22.476205  1.46859059E-04  1.89437398E-04
        83   97           355.238764  2.00771650E-03  4.41024943E-04
        83   39            19.339053  1.15676533E-01  9.69309967E-02
        83   41            48.002649  7.95458780E-04  1.52980635E-03
        83   98           100.730710  3.69202917E-02  1.83929463E-02
        83   63          1173.208190  6.62000789E-04  5.19947008E-05
        77   90            41.885100  2.83180893E-04  4.87277601E-04
        77   57          7806.675071  1.63924713E-02  2.07324458E-04
        77   91            58.170155  8.23463696E-04  1.96860326E-03
        77   34            53.361458  3.73706364E-02  2.43676846E-02
        77   92           284.059625  2.97027013E-02  7.73387759E-03
        65   90            41.885100  2.83180893E-04  4.87277601E-04
        65   57          7806.675071  1.63924713E-02  2.07324458E-04
        65   91            58.170155  8.23463696E-04  1.96860326E-03
        65   22            53.361458  3.73706364E-02  2.43676846E-02
        65   92           284.059625  2.97027013E-02  7.73387759E-03
        84   61            96.020929  5.60672557E-04  1.40905407E-02
        84   95            96.020929  5.60672557E-04  1.40905407E-02
        84   40            29.470705  1.93808521E-01  1.49692952E-01
        72   61            96.020929  5.60672557E-04  1.40905407E-02
        72   95            96.020929  5.60672557E-04  1.40905407E-02
        72   28            29.470705  1.93808521E-01  1.49692952E-01
        73   61      --------------- below threshold  1.52167735E-05
        73   95      --------------- below threshold  1.52167735E-05
        73   96            61.969803  4.57976781E-04  1.20424508E-03
        73   62            71.343551  4.31543685E-05  1.50592169E-04
        73   97            46.685427  1.97141425E-02  1.34397417E-02
        73   27            66.091195  2.65296240E-03  1.59729261E-03
        73   29            24.474548  1.56139952E-01  1.25439260E-01
        73   63            24.844983  6.89312994E-02  5.52135118E-02
        85   61      --------------- below threshold  1.52167735E-05
        85   95      --------------- below threshold  1.52167735E-05
        85   96            61.969803  4.57976781E-04  1.20424508E-03
        85   62            71.343551  4.31543684E-05  1.50592169E-04
        85   97            46.685427  1.97141425E-02  1.34397417E-02
        85   39            66.091195  2.65296240E-03  1.59729261E-03
        85   41            24.474548  1.56139952E-01  1.25439260E-01
        85   63            24.844983  6.89312993E-02  5.52135118E-02
        61   74            98.426390  3.28746809E-05  2.08912560E-03
        61   86            98.426390  3.28746809E-05  2.08912560E-03
        61   13            22.089036  6.67416432E-02  8.56639936E-02
        61   15            20.981239  3.04791779E-03  3.85720776E-03
        95   74            98.426390  3.28746809E-05  2.08912560E-03
        95   86            98.426390  3.28746809E-05  2.08912560E-03
        95   50            22.089036  6.67416432E-02  8.56639936E-02
        66   90            73.163923  1.17976763E-03  4.39620010E-03
        66   57            34.402555  8.55971753E-04  1.30488581E-03
        66   91            62.337825  1.14355659E-02  7.04430151E-03
        66   22            23.278997  1.45603429E-01  1.18108868E-01
        66   92            19.594133  1.69081946E-02  1.41379800E-02
        78   90            73.163923  1.17976763E-03  4.39620010E-03
        78   57            34.402555  8.55971753E-04  1.30488581E-03
        78   91            62.337825  1.14355659E-02  7.04430151E-03
        78   34            23.278997  1.45603429E-01  1.18108868E-01
        78   92            19.594133  1.69081946E-02  1.41379800E-02
        74   96      --------------- below threshold  1.17990456E-02
        74   62            98.550131  3.59288097E-04  2.47807250E-02
        74   27      --------------- below threshold  1.25893402E-05
        74   98            13.432864  3.20803401E-03  3.70583358E-03
        74   63            52.898242  6.09203935E-04  1.29337835E-03
        86   96      --------------- below threshold  1.17990456E-02
        86   62            98.550131  3.59288097E-04  2.47807250E-02
        86   39      --------------- below threshold  1.25893402E-05
        86   98            13.432864  3.20803401E-03  3.70583358E-03
        86   63            52.898243  6.09203933E-04  1.29337835E-03
        96   51            79.650144  8.18557616E-03  4.55639832E-03
        96   52            42.407378  1.96583538E-02  3.41334587E-02
        96   53      --------------- below threshold  1.71882684E-03
        62   14            14.907758  6.63704430E-02  7.79982302E-02
        67   91           417.001023  9.03025392E-03  1.74666074E-03
        67   23            19.221916  2.09244444E-01  1.75508372E-01
        79   91           417.001023  9.03025392E-03  1.74666074E-03
        79   35            19.221916  2.09244444E-01  1.75508372E-01
        90   80      --------------- below threshold  7.05802798E-03
        90   68      --------------- below threshold  7.05802798E-03
        90   46           273.112593  1.02497956E-02  2.74710525E-03
        80   57      --------------- below threshold  2.92241641E-03
        80   91            54.162440  4.19130539E-04  9.14382309E-04
        80   34      ---------------  1.55088672E-05 below threshold
        80   92      --------------- below threshold  1.96835854E-03
        68   57      --------------- below threshold  2.92241641E-03
        68   91            54.162440  4.19130539E-04  9.14382309E-04
        68   22      ---------------  1.55088672E-05 below threshold
        68   92      --------------- below threshold  1.96835854E-03
        54   42            47.932772  2.56772621E-04  4.93155931E-04
        54   30            47.932772  2.56772621E-04  4.93155931E-04
        57    6            31.379087  1.00643242E-01  1.46665553E-01
        57    8            72.608620  7.63016679E-02  4.42050160E-02
        57   10           132.899043  1.02893519E-03  4.41794513E-04
        57   11          1715.156750  3.23767406E-04  1.78368841E-05
        57   12            36.319357  4.33944919E-01  3.18329641E-01
        16   42            96.952344  6.15805611E-04  2.02058783E-02
        16   30            96.952344  6.15805611E-04  2.02058783E-02
        17   42            96.624826  4.64439050E-04  1.37604485E-02
        17   30            96.624826  4.64439050E-04  1.37604485E-02
        97   51            98.944355  2.46053980E-04  2.33084100E-02
        97   52            91.683566  1.19332650E-02  1.43490158E-01
        97   53            76.906717  6.36662330E-03  2.75691559E-02
        50   39      --------------- below threshold  7.44303725E-05
        50   27      --------------- below threshold  7.44303725E-05
        50   40          4233.552977  1.15965241E-03  2.67598532E-05
        50   28          4233.552976  1.15965241E-03  2.67598532E-05
        50   29            92.361825  3.44330065E-05  4.50801476E-04
        50   41            92.361825  3.44330065E-05  4.50801476E-04
        13   39      --------------- below threshold  7.44303725E-05
        13   27      --------------- below threshold  7.44303725E-05
        13   40          4233.552976  1.15965241E-03  2.67598532E-05
        13   28          4233.552977  1.15965241E-03  2.67598532E-05
        13   29            92.361825  3.44330065E-05  4.50801476E-04
        13   41            92.361825  3.44330065E-05  4.50801476E-04
        51   39            71.839063  2.02194742E-03  7.17997224E-03
        51   27            71.839063  2.02194742E-03  7.17997224E-03
        51   29      --------------- below threshold  2.05297178E-04
        51   41      --------------- below threshold  2.05297178E-04
        42   18            99.143388  1.17274243E-04  1.36904768E-02
        30   18            99.143388  1.17274243E-04  1.36904768E-02
        91   45            74.312505  2.09726769E-02  8.16454734E-02
        91   47            85.163458  6.92447423E-03  4.66717528E-02
        14   39            93.211614  6.72578103E-05  9.90777610E-04
        14   27            93.211614  6.72578103E-05  9.90777610E-04
        14   63            53.778724  1.80308484E-03  3.90098454E-03
         6   22      ---------------  7.83148894E-05 below threshold
         6   34      ---------------  7.83148894E-05 below threshold
        52   39      --------------- below threshold  1.76065045E-03
        52   27      --------------- below threshold  1.76065045E-03
        52   29            87.659818  5.92553815E-05  4.80182397E-04
        52   41            87.659818  5.92553815E-05  4.80182397E-04
        52   98            36.074881  6.90025907E-03  1.07942842E-02
         7   22            90.819893  7.25596544E-05  7.90400982E-04
         7   34            90.819893  7.25596544E-05  7.90400982E-04
        45   22            90.819893  7.25596544E-05  7.90400982E-04
        45   34            90.819893  7.25596544E-05  7.90400982E-04
        39   53            99.963433  3.05231831E-05  8.34714950E-02
        39   15            99.480233  2.07187426E-05  3.98615735E-03
        27   53            99.963433  3.05231831E-05  8.34714950E-02
        27   15            99.480233  2.07187426E-05  3.98615735E-03
        53   29      --------------- below threshold  1.57459206E-04
        53   41      --------------- below threshold  1.57459206E-04
        53   98            41.103085  2.80749643E-02  4.76679711E-02
        15   40            99.730270  1.48466239E-04  5.50425893E-02
        15   28            99.730270  1.48466239E-04  5.50425893E-02
        15   29            98.356830  1.61643841E-04  9.83731901E-03
        15   41            98.356830  1.61643841E-04  9.83731901E-03
        46   22            88.341297  9.43183197E-04  8.08994988E-03
        46   34            88.341297  9.43183197E-04  8.08994988E-03
        46   92            13.276253  2.21612301E-02  1.95638799E-02
         8   22            94.961582  1.15791236E-04  2.29816674E-03
         8   34            94.961582  1.15791236E-04  2.29816674E-03
        22    9            99.293406  5.61336450E-05  7.94425660E-03
        22   47            99.293406  5.61336450E-05  7.94425660E-03
        22   10            99.600972  2.13499469E-04  5.35048888E-02
        22   11      --------------- below threshold  2.98051412E-04
        34    9            99.293406  5.61336450E-05  7.94425660E-03
        34   47            99.293406  5.61336450E-05  7.94425660E-03
        34   10            99.600972  2.13499469E-04  5.35048888E-02
        34   11      --------------- below threshold  2.98051412E-04
         9   35            99.646625  2.03608992E-04  5.76184357E-02
         9   23            99.646625  2.03608992E-04  5.76184357E-02
        47   35            99.646625  2.03608992E-04  5.76184357E-02
        47   23            99.646625  2.03608992E-04  5.76184357E-02
     ---------------------------------------------------------------

 Number of problematic transitions =                   548

--

 Electric-dipole - electric-octupole not included
 Electric-dipole - magnetic-quadrupole not included

++ Second-order contribution to the transition strengths (spin-free states):
   -------------------------------------------------------------------------
     for osc. strength at least  1.00000000E-05

      From   To        Osc. strength
     -------------------------------
        88   92       1.02215661E-05
     -------------------------------
--


      ****************************************************************************************************
      *                                                                                                  *
      *                                    Special properties section                                    *
      *                                                                                                  *
      ****************************************************************************************************


++ I/O STATISTICS
 
  I. General I/O information
  - - - - - - - - - - - - - - - - - - - - - - - - - - - - - - - - - - - - - - - - - - -
  Unit  Name          Flsize      Write/Read            MBytes           Write/Read
                      (MBytes)       Calls              In/Out           Time, sec.
  - - - - - - - - - - - - - - - - - - - - - - - - - - - - - - - - - - - - - - - - - - -
   1  RUNFILE           0.99 .     266/  263324 .      2.5/   1904.9 .       0/       0
   2  ANNI              0.00 .       0/       0 .      0.0/      0.0 .       0/       0
   3  ONEINT            1.54 .       0/  126040 .      0.0/ 152831.4 .       0/      18
   4  JOBIPH            1.52 .       0/     651 .      0.0/      1.5 .       0/       0
   5  JOBIPH01          1.22 .       0/     219 .      0.0/      1.3 .       0/       0
   6  JOBIPH02          1.22 .       0/     219 .      0.0/      1.3 .       0/       0
   7  JOBIPH03          1.28 .       0/     315 .      0.0/      1.4 .       0/       0
   8  JOBIPH04          1.32 .       0/     363 .      0.0/      1.4 .       0/       0
   9  JOBIPH05          1.15 .       0/     123 .      0.0/      1.3 .       0/       0
  10  JOBIPH06          1.28 .       0/     315 .      0.0/      1.4 .       0/       0
  11  JOBIPH07          1.32 .       0/     363 .      0.0/      1.4 .       0/       0
  12  JOBIPH08          1.15 .       0/     123 .      0.0/      1.3 .       0/       0
  13  JOBIPH09          1.28 .       0/     315 .      0.0/      1.4 .       0/       0
  14  JOBIPH10          1.32 .       0/     363 .      0.0/      1.4 .       0/       0
  15  JOBIPH11          1.15 .       0/     123 .      0.0/      1.3 .       0/       0
  16  JOBIPH12          1.22 .       0/     219 .      0.0/      1.3 .       0/       0
  17  JOBIPH13          1.32 .       0/     363 .      0.0/      1.4 .       0/       0
  18  JOBIPH14          1.28 .       0/     315 .      0.0/      1.4 .       0/       0
  19  JOBIPH15          1.32 .       0/     363 .      0.0/      1.4 .       0/       0
  20  JOBIPH16          1.15 .       0/     123 .      0.0/      1.3 .       0/       0
  21  JOBIPH17          1.28 .       0/     315 .      0.0/      1.4 .       0/       0
  22  JOBIPH18          1.32 .       0/     363 .      0.0/      1.4 .       0/       0
  23  JOBIPH19          1.15 .       0/     123 .      0.0/      1.3 .       0/       0
  24  JOBIPH20          1.28 .       0/     315 .      0.0/      1.4 .       0/       0
  25  JOBIPH21          1.32 .       0/     363 .      0.0/      1.4 .       0/       0
  26  JOBIPH22          1.15 .       0/     123 .      0.0/      1.3 .       0/       0
  - - - - - - - - - - - - - - - - - - - - - - - - - - - - - - - - - - - - - - - - - - -
   *  TOTAL            31.50 .     266/  395841 .      2.5/ 154767.4 .       0/      18
  - - - - - - - - - - - - - - - - - - - - - - - - - - - - - - - - - - - - - - - - - - -
 
  II. I/O Access Patterns
  - - - - - - - - - - - - - - - - - - - -
  Unit  Name               % of random
                         Write/Read calls
  - - - - - - - - - - - - - - - - - - - -
   1  RUNFILE             28.6/  11.1
   2  ANNI                 0.0/   0.0
   3  ONEINT               0.0/  99.3
   4  JOBIPH               0.0/  51.9
   5  JOBIPH01             0.0/  55.7
   6  JOBIPH02             0.0/  55.7
   7  JOBIPH03             0.0/  54.0
   8  JOBIPH04             0.0/  53.4
   9  JOBIPH05             0.0/  60.2
  10  JOBIPH06             0.0/  54.0
  11  JOBIPH07             0.0/  53.4
  12  JOBIPH08             0.0/  60.2
  13  JOBIPH09             0.0/  54.0
  14  JOBIPH10             0.0/  53.4
  15  JOBIPH11             0.0/  60.2
  16  JOBIPH12             0.0/  55.7
  17  JOBIPH13             0.0/  53.4
  18  JOBIPH14             0.0/  54.0
  19  JOBIPH15             0.0/  53.4
  20  JOBIPH16             0.0/  60.2
  21  JOBIPH17             0.0/  54.0
  22  JOBIPH18             0.0/  53.4
  23  JOBIPH19             0.0/  60.2
  24  JOBIPH20             0.0/  54.0
  25  JOBIPH21             0.0/  53.4
  26  JOBIPH22             0.0/  60.2
  - - - - - - - - - - - - - - - - - - - -
--
--- Stop Module: rassi at Thu Apr 17 10:53:38 2025 /rc=_RC_ALL_IS_WELL_ ---
--- Module rassi spent 40 seconds ---

.##################.
.# Happy landing! #.
.##################.

    Timing: Wall=40.53 User=19.90 System=20.21
