   This run of MOLCAS is using the pymolcas driver

                             OPE
                             OPE          NMOL  CASOP  ENMOLC A   SO
                 OPE        NMOLC        AS  OP EN  MO LC     AS  OP
                OPENM       OL CA        SO  PE NM  OL CA     SOP EN
                OP EN      MO   LC       AS  OP ENMOL  CASO   PENMOL
                OP  EN     MO   LC       AS  OP EN     MO     LC ASO
               OP   E  NMOL  C  AS       OP  EN MO     LC     AS  OP
               OP  E   NMO   LC AS        OPEN  MO     LCASOP EN   M
               O  PEN   MO  LCA  SO
            OPE   NMO   L   CAS    OP
        OPENMOL  CASOP     ENMOL   CASOPE
     OPENMOLCA   SOPENMOLCASOPEN   MOLCASOPE
    OPENMOLCAS   OP           EN   MOL    CAS
    OPENMOLCAS       OP  ENM        O     LCA
    OPENMOLCAS    OPEN  MOLCASO     P  E  NMO
    OPENMOLCAS     OP               E  N  MOL
    OPENMOLCA   SO           PENM   O  L  CAS    OPEN    MO    LCAS
    OPENMOLCA   SOP           ENM   O  L  CAS   OP  EN  MOLC  AS   O
    OPENMOLCA   SOPE           NM      O  LCA   S      OP  EN MO
    OPENMOLC                AS         O  PEN   M      OL  CA  SOPE
    OPENMO        LCASOPE  NMOL        C  ASO   P      ENMOLC     AS
    OPE     NMO      LCA  SO     P     E   NM   OL  CA SO  PE N   MO
          OPENMOLCA            SOPE   NMO        LCAS  O    P  ENMO
     OPENMOLCASOPENMOLCASOPENMOLCASOPENMOLCA
        OPENMOLCASOPENMOLCASOPENMOLCASOPE
            OPENMOLCASOPENMOLCASOPENM
               OPENMOLCASOPENMOLCA        version: 25.02
                   OPENMOLCASO
                       OPE                tag: 92-gf4b470f0a

 OpenMolcas is free software; you can redistribute it and/or modify it
 under the terms of the GNU Lesser General Public License version 2.1.
 OpenMolcas is distributed in the hope that it will be useful, but it
 is provided "as is" and without any express or implied warranties.
 For more details see the full text of the license in the file
 LICENSE or in <http://www.gnu.org/licenses/>.

                 Copyright (C) The OpenMolcas Authors
           For the author list and the recommended citation,
                   consult the file CONTRIBUTORS.md

           *************************************************
           * pymolcas version py2.29                       *
           *   build 2ba4516c4d154a59cba941070ba63e2c      *
           *   (after the EMIL interpreter by V. Veryazov) *
           *************************************************

configuration info
------------------
Host name: iftia91.univ.gda.pl (Linux)
C Compiler ID: GNU
C flags: -std=gnu99
Fortran Compiler ID: GNU
Fortran flags: -cpp -fdefault-integer-8 -fmax-stack-var-size=1048576
Definitions: _MOLCAS_;_I8_;_LINUX_
Parallel: OFF (GA=OFF)


   --------------------------------------------------------------------
  |
  |           Project: O2
  |    Submitted from: /scratch/tecumseh/WorkSpace/O2.0.5000
  |      Scratch area: /scratch/tecumseh/WorkSpace/O2.0.5000
  |   Save outputs to: WORKDIR
  |            Molcas: /home/tecumseh/program/OpenMolcas/build
  |
  | Scratch area is NOT empty
  |
  |    MOLCAS_DRIVER = /home/tecumseh/program/OpenMolcas/build/pymolcas
  |    MOLCAS_NPROCS = 1
  |    MOLCAS_SOURCE = /home/tecumseh/program/OpenMolcas/OpenMolcas
  | MOLCAS_STRUCTURE = 0
  |
   --------------------------------------------------------------------

++ ---------   Input file   ---------

>>> COPY $dir/vectors/$Project.$R.1Ag-12S.JobIph $WorkDir/JOBIPH

>>> COPY $dir/vectors/$Project.$R.3Ag-3S.JobIph $WorkDir/JOBIPH01

>>> COPY $dir/vectors/$Project.$R.5Ag-3S.JobIph $WorkDir/JOBIPH02

>>> COPY $dir/vectors/$Project.$R.1B3u-5S.JobIph $WorkDir/JOBIPH03

>>> COPY $dir/vectors/$Project.$R.3B3u-6S.JobIph $WorkDir/JOBIPH04

>>> COPY $dir/vectors/$Project.$R.5B3u-1S.JobIph $WorkDir/JOBIPH05

>>> COPY $dir/vectors/$Project.$R.1B2u-5S.JobIph $WorkDir/JOBIPH06

>>> COPY $dir/vectors/$Project.$R.3B2u-6S.JobIph $WorkDir/JOBIPH07

>>> COPY $dir/vectors/$Project.$R.5B2u-1S.JobIph $WorkDir/JOBIPH08

>>> COPY $dir/vectors/$Project.$R.1B1g-5S.JobIph $WorkDir/JOBIPH09

>>> COPY $dir/vectors/$Project.$R.3B1g-6S.JobIph $WorkDir/JOBIPH10

>>> COPY $dir/vectors/$Project.$R.5B1g-1S.JobIph $WorkDir/JOBIPH11

>>> COPY $dir/vectors/$Project.$R.1B1u-3S.JobIph $WorkDir/JOBIPH12

>>> COPY $dir/vectors/$Project.$R.3B1u-6S.JobIph $WorkDir/JOBIPH13

>>> COPY $dir/vectors/$Project.$R.1B2g-5S.JobIph $WorkDir/JOBIPH14

>>> COPY $dir/vectors/$Project.$R.3B2g-6S.JobIph $WorkDir/JOBIPH15

>>> COPY $dir/vectors/$Project.$R.5B2g-1S.JobIph $WorkDir/JOBIPH16

>>> COPY $dir/vectors/$Project.$R.1B3g-5S.JobIph $WorkDir/JOBIPH17

>>> COPY $dir/vectors/$Project.$R.3B3g-6S.JobIph $WorkDir/JOBIPH18

>>> COPY $dir/vectors/$Project.$R.5B3g-1S.JobIph $WorkDir/JOBIPH19

>>> COPY $dir/vectors/$Project.$R.1Au-5S.JobIph $WorkDir/JOBIPH20

>>> COPY $dir/vectors/$Project.$R.3Au-6S.JobIph $WorkDir/JOBIPH21

>>> COPY $dir/vectors/$Project.$R.5Au-1S.JobIph $WorkDir/JOBIPH22

&RASSI

OMEGa
NROF=23 12 3 3 5 6 1 5 6 1 5 6 1 3 6 5 6 1 5 6 1 5 6 1
1 2 3 4 5 6 7 8 9 10 11 12
1 2 3
1 2 3
1 2 3 4 5
1 2 3 4 5 6
1
1 2 3 4 5
1 2 3 4 5 6
1
1 2 3 4 5
1 2 3 4 5 6
1
1 2 3
1 2 3 4 5 6
1 2 3 4 5
1 2 3 4 5 6
1
1 2 3 4 5
1 2 3 4 5 6
1
1 2 3 4 5
1 2 3 4 5 6
1
EJOB

-- ----------------------------------

>>> COPY /home/tecumseh/project/molecule/O2/OpenMolcas/vectors/O2.0.5000.1Ag-12S.JobIph /scratch/tecumseh/WorkSpace/O2.0.5000/JOBIPH

>>> COPY /home/tecumseh/project/molecule/O2/OpenMolcas/vectors/O2.0.5000.3Ag-3S.JobIph /scratch/tecumseh/WorkSpace/O2.0.5000/JOBIPH01

>>> COPY /home/tecumseh/project/molecule/O2/OpenMolcas/vectors/O2.0.5000.5Ag-3S.JobIph /scratch/tecumseh/WorkSpace/O2.0.5000/JOBIPH02

>>> COPY /home/tecumseh/project/molecule/O2/OpenMolcas/vectors/O2.0.5000.1B3u-5S.JobIph /scratch/tecumseh/WorkSpace/O2.0.5000/JOBIPH03

>>> COPY /home/tecumseh/project/molecule/O2/OpenMolcas/vectors/O2.0.5000.3B3u-6S.JobIph /scratch/tecumseh/WorkSpace/O2.0.5000/JOBIPH04

>>> COPY /home/tecumseh/project/molecule/O2/OpenMolcas/vectors/O2.0.5000.5B3u-1S.JobIph /scratch/tecumseh/WorkSpace/O2.0.5000/JOBIPH05

>>> COPY /home/tecumseh/project/molecule/O2/OpenMolcas/vectors/O2.0.5000.1B2u-5S.JobIph /scratch/tecumseh/WorkSpace/O2.0.5000/JOBIPH06

>>> COPY /home/tecumseh/project/molecule/O2/OpenMolcas/vectors/O2.0.5000.3B2u-6S.JobIph /scratch/tecumseh/WorkSpace/O2.0.5000/JOBIPH07

>>> COPY /home/tecumseh/project/molecule/O2/OpenMolcas/vectors/O2.0.5000.5B2u-1S.JobIph /scratch/tecumseh/WorkSpace/O2.0.5000/JOBIPH08

>>> COPY /home/tecumseh/project/molecule/O2/OpenMolcas/vectors/O2.0.5000.1B1g-5S.JobIph /scratch/tecumseh/WorkSpace/O2.0.5000/JOBIPH09

>>> COPY /home/tecumseh/project/molecule/O2/OpenMolcas/vectors/O2.0.5000.3B1g-6S.JobIph /scratch/tecumseh/WorkSpace/O2.0.5000/JOBIPH10

>>> COPY /home/tecumseh/project/molecule/O2/OpenMolcas/vectors/O2.0.5000.5B1g-1S.JobIph /scratch/tecumseh/WorkSpace/O2.0.5000/JOBIPH11

>>> COPY /home/tecumseh/project/molecule/O2/OpenMolcas/vectors/O2.0.5000.1B1u-3S.JobIph /scratch/tecumseh/WorkSpace/O2.0.5000/JOBIPH12

>>> COPY /home/tecumseh/project/molecule/O2/OpenMolcas/vectors/O2.0.5000.3B1u-6S.JobIph /scratch/tecumseh/WorkSpace/O2.0.5000/JOBIPH13

>>> COPY /home/tecumseh/project/molecule/O2/OpenMolcas/vectors/O2.0.5000.1B2g-5S.JobIph /scratch/tecumseh/WorkSpace/O2.0.5000/JOBIPH14

>>> COPY /home/tecumseh/project/molecule/O2/OpenMolcas/vectors/O2.0.5000.3B2g-6S.JobIph /scratch/tecumseh/WorkSpace/O2.0.5000/JOBIPH15

>>> COPY /home/tecumseh/project/molecule/O2/OpenMolcas/vectors/O2.0.5000.5B2g-1S.JobIph /scratch/tecumseh/WorkSpace/O2.0.5000/JOBIPH16

>>> COPY /home/tecumseh/project/molecule/O2/OpenMolcas/vectors/O2.0.5000.1B3g-5S.JobIph /scratch/tecumseh/WorkSpace/O2.0.5000/JOBIPH17

>>> COPY /home/tecumseh/project/molecule/O2/OpenMolcas/vectors/O2.0.5000.3B3g-6S.JobIph /scratch/tecumseh/WorkSpace/O2.0.5000/JOBIPH18

>>> COPY /home/tecumseh/project/molecule/O2/OpenMolcas/vectors/O2.0.5000.5B3g-1S.JobIph /scratch/tecumseh/WorkSpace/O2.0.5000/JOBIPH19

>>> COPY /home/tecumseh/project/molecule/O2/OpenMolcas/vectors/O2.0.5000.1Au-5S.JobIph /scratch/tecumseh/WorkSpace/O2.0.5000/JOBIPH20

>>> COPY /home/tecumseh/project/molecule/O2/OpenMolcas/vectors/O2.0.5000.3Au-6S.JobIph /scratch/tecumseh/WorkSpace/O2.0.5000/JOBIPH21

>>> COPY /home/tecumseh/project/molecule/O2/OpenMolcas/vectors/O2.0.5000.5Au-1S.JobIph /scratch/tecumseh/WorkSpace/O2.0.5000/JOBIPH22

--- Start Module: rassi at Thu Apr 17 10:53:48 2025 ---

()()()()()()()()()()()()()()()()()()()()()()()()()()()()()()()()()()()()()()()()()()()()()()()()()()

                                               &RASSI

                                   only a single process is used
                       available to each process: 2.0 GB of memory, 1 thread?
                                            pid: 298074
()()()()()()()()()()()()()()()()()()()()()()()()()()()()()()()()()()()()()()()()()()()()()()()()()()


      ********************************************************************************
      *                                                                              *
      *                             General data section                             *
      *                                                                              *
      ********************************************************************************

   Specific data for JOBIPH file JOBIPH
   -------------------------------------

   Header from SEWARD:
                            O2, D2h symmetry, aug-cc-pVTZ                      
        Integrals generated by Gateway/Seward, Wed Apr 16 15:36:16 2025        

   CASSCF title (first line only):
       O2, 1Ag 12S                                                             

  STATE IRREP:                1
  SPIN MULTIPLICITY:          1
  ACTIVE ELECTRONS:          12
  MAX RAS1 HOLES:             0
  MAX RAS3 ELECTRONS:         0
  NR OF CONFIG:              60

   Specific data for JOBIPH file JOBIPH01
   -------------------------------------

   Header from SEWARD:
                            O2, D2h symmetry, aug-cc-pVTZ                      
        Integrals generated by Gateway/Seward, Wed Apr 16 15:36:16 2025        

   CASSCF title (first line only):
       O2, 3Ag  3S                                                             

  STATE IRREP:                1
  SPIN MULTIPLICITY:          3
  ACTIVE ELECTRONS:          12
  MAX RAS1 HOLES:             0
  MAX RAS3 ELECTRONS:         0
  NR OF CONFIG:              42

   Specific data for JOBIPH file JOBIPH02
   -------------------------------------

   Header from SEWARD:
                            O2, D2h symmetry, aug-cc-pVTZ                      
        Integrals generated by Gateway/Seward, Wed Apr 16 15:36:16 2025        

   CASSCF title (first line only):
       O2, 5Ag  3S                                                             

  STATE IRREP:                1
  SPIN MULTIPLICITY:          5
  ACTIVE ELECTRONS:          12
  MAX RAS1 HOLES:             0
  MAX RAS3 ELECTRONS:         0
  NR OF CONFIG:              10

   Specific data for JOBIPH file JOBIPH03
   -------------------------------------

   Header from SEWARD:
                            O2, D2h symmetry, aug-cc-pVTZ                      
        Integrals generated by Gateway/Seward, Thu Apr 17 10:53:38 2025        

   CASSCF title (first line only):
       O2, 1B3u 5S                                                             

  STATE IRREP:                2
  SPIN MULTIPLICITY:          1
  ACTIVE ELECTRONS:          12
  MAX RAS1 HOLES:             0
  MAX RAS3 ELECTRONS:         0
  NR OF CONFIG:              40

   Specific data for JOBIPH file JOBIPH04
   -------------------------------------

   Header from SEWARD:
                            O2, D2h symmetry, aug-cc-pVTZ                      
        Integrals generated by Gateway/Seward, Wed Apr 16 15:36:16 2025        

   CASSCF title (first line only):
       O2, 3B3u 6S                                                             

  STATE IRREP:                2
  SPIN MULTIPLICITY:          3
  ACTIVE ELECTRONS:          12
  MAX RAS1 HOLES:             0
  MAX RAS3 ELECTRONS:         0
  NR OF CONFIG:              48

   Specific data for JOBIPH file JOBIPH05
   -------------------------------------

   Header from SEWARD:
                            O2, D2h symmetry, aug-cc-pVTZ                      
        Integrals generated by Gateway/Seward, Wed Apr 16 15:36:16 2025        

   CASSCF title (first line only):
       O2, 5B3u 1S                                                             

  STATE IRREP:                2
  SPIN MULTIPLICITY:          5
  ACTIVE ELECTRONS:          12
  MAX RAS1 HOLES:             0
  MAX RAS3 ELECTRONS:         0
  NR OF CONFIG:               8

   Specific data for JOBIPH file JOBIPH06
   -------------------------------------

   Header from SEWARD:
                            O2, D2h symmetry, aug-cc-pVTZ                      
        Integrals generated by Gateway/Seward, Thu Apr 17 10:53:38 2025        

   CASSCF title (first line only):
       O2, 1B2u 5S                                                             

  STATE IRREP:                3
  SPIN MULTIPLICITY:          1
  ACTIVE ELECTRONS:          12
  MAX RAS1 HOLES:             0
  MAX RAS3 ELECTRONS:         0
  NR OF CONFIG:              40

   Specific data for JOBIPH file JOBIPH07
   -------------------------------------

   Header from SEWARD:
                            O2, D2h symmetry, aug-cc-pVTZ                      
        Integrals generated by Gateway/Seward, Wed Apr 16 15:36:16 2025        

   CASSCF title (first line only):
       O2, 3B2u 6S                                                             

  STATE IRREP:                3
  SPIN MULTIPLICITY:          3
  ACTIVE ELECTRONS:          12
  MAX RAS1 HOLES:             0
  MAX RAS3 ELECTRONS:         0
  NR OF CONFIG:              48

   Specific data for JOBIPH file JOBIPH08
   -------------------------------------

   Header from SEWARD:
                            O2, D2h symmetry, aug-cc-pVTZ                      
        Integrals generated by Gateway/Seward, Wed Apr 16 15:36:16 2025        

   CASSCF title (first line only):
       O2, 5B2u 1S                                                             

  STATE IRREP:                3
  SPIN MULTIPLICITY:          5
  ACTIVE ELECTRONS:          12
  MAX RAS1 HOLES:             0
  MAX RAS3 ELECTRONS:         0
  NR OF CONFIG:               8

   Specific data for JOBIPH file JOBIPH09
   -------------------------------------

   Header from SEWARD:
                            O2, D2h symmetry, aug-cc-pVTZ                      
        Integrals generated by Gateway/Seward, Wed Apr 16 15:36:16 2025        

   CASSCF title (first line only):
       O2, 1B1g 5S                                                             

  STATE IRREP:                4
  SPIN MULTIPLICITY:          1
  ACTIVE ELECTRONS:          12
  MAX RAS1 HOLES:             0
  MAX RAS3 ELECTRONS:         0
  NR OF CONFIG:              36

   Specific data for JOBIPH file JOBIPH10
   -------------------------------------

   Header from SEWARD:
                            O2, D2h symmetry, aug-cc-pVTZ                      
        Integrals generated by Gateway/Seward, Wed Apr 16 15:36:16 2025        

   CASSCF title (first line only):
       O2, 3B1g 6S                                                             

  STATE IRREP:                4
  SPIN MULTIPLICITY:          3
  ACTIVE ELECTRONS:          12
  MAX RAS1 HOLES:             0
  MAX RAS3 ELECTRONS:         0
  NR OF CONFIG:              48

   Specific data for JOBIPH file JOBIPH11
   -------------------------------------

   Header from SEWARD:
                            O2, D2h symmetry, aug-cc-pVTZ                      
        Integrals generated by Gateway/Seward, Wed Apr 16 15:36:16 2025        

   CASSCF title (first line only):
       O2, 5B1g 1S                                                             

  STATE IRREP:                4
  SPIN MULTIPLICITY:          5
  ACTIVE ELECTRONS:          12
  MAX RAS1 HOLES:             0
  MAX RAS3 ELECTRONS:         0
  NR OF CONFIG:              12

   Specific data for JOBIPH file JOBIPH12
   -------------------------------------

   Header from SEWARD:
                            O2, D2h symmetry, aug-cc-pVTZ                      
        Integrals generated by Gateway/Seward, Thu Apr 17 10:53:38 2025        

   CASSCF title (first line only):
       O2, 1B1u 3S                                                             

  STATE IRREP:                5
  SPIN MULTIPLICITY:          1
  ACTIVE ELECTRONS:          12
  MAX RAS1 HOLES:             0
  MAX RAS3 ELECTRONS:         0
  NR OF CONFIG:              44

   Specific data for JOBIPH file JOBIPH13
   -------------------------------------

   Header from SEWARD:
                            O2, D2h symmetry, aug-cc-pVTZ                      
        Integrals generated by Gateway/Seward, Wed Apr 16 15:36:16 2025        

   CASSCF title (first line only):
       O2, 3B1u 6S                                                             

  STATE IRREP:                5
  SPIN MULTIPLICITY:          3
  ACTIVE ELECTRONS:          12
  MAX RAS1 HOLES:             0
  MAX RAS3 ELECTRONS:         0
  NR OF CONFIG:              48

   Specific data for JOBIPH file JOBIPH14
   -------------------------------------

   Header from SEWARD:
                            O2, D2h symmetry, aug-cc-pVTZ                      
        Integrals generated by Gateway/Seward, Wed Apr 16 15:36:16 2025        

   CASSCF title (first line only):
       O2, 1B2g 5S                                                             

  STATE IRREP:                6
  SPIN MULTIPLICITY:          1
  ACTIVE ELECTRONS:          12
  MAX RAS1 HOLES:             0
  MAX RAS3 ELECTRONS:         0
  NR OF CONFIG:              40

   Specific data for JOBIPH file JOBIPH15
   -------------------------------------

   Header from SEWARD:
                            O2, D2h symmetry, aug-cc-pVTZ                      
        Integrals generated by Gateway/Seward, Wed Apr 16 15:36:16 2025        

   CASSCF title (first line only):
       O2, 3B2g 6S                                                             

  STATE IRREP:                6
  SPIN MULTIPLICITY:          3
  ACTIVE ELECTRONS:          12
  MAX RAS1 HOLES:             0
  MAX RAS3 ELECTRONS:         0
  NR OF CONFIG:              48

   Specific data for JOBIPH file JOBIPH16
   -------------------------------------

   Header from SEWARD:
                            O2, D2h symmetry, aug-cc-pVTZ                      
        Integrals generated by Gateway/Seward, Wed Apr 16 15:36:16 2025        

   CASSCF title (first line only):
       O2, 5B2g 1S                                                             

  STATE IRREP:                6
  SPIN MULTIPLICITY:          5
  ACTIVE ELECTRONS:          12
  MAX RAS1 HOLES:             0
  MAX RAS3 ELECTRONS:         0
  NR OF CONFIG:               8

   Specific data for JOBIPH file JOBIPH17
   -------------------------------------

   Header from SEWARD:
                            O2, D2h symmetry, aug-cc-pVTZ                      
        Integrals generated by Gateway/Seward, Wed Apr 16 15:36:16 2025        

   CASSCF title (first line only):
       O2, 1B3g 5S                                                             

  STATE IRREP:                7
  SPIN MULTIPLICITY:          1
  ACTIVE ELECTRONS:          12
  MAX RAS1 HOLES:             0
  MAX RAS3 ELECTRONS:         0
  NR OF CONFIG:              40

   Specific data for JOBIPH file JOBIPH18
   -------------------------------------

   Header from SEWARD:
                            O2, D2h symmetry, aug-cc-pVTZ                      
        Integrals generated by Gateway/Seward, Wed Apr 16 15:36:16 2025        

   CASSCF title (first line only):
       O2, 3B3g 6S                                                             

  STATE IRREP:                7
  SPIN MULTIPLICITY:          3
  ACTIVE ELECTRONS:          12
  MAX RAS1 HOLES:             0
  MAX RAS3 ELECTRONS:         0
  NR OF CONFIG:              48

   Specific data for JOBIPH file JOBIPH19
   -------------------------------------

   Header from SEWARD:
                            O2, D2h symmetry, aug-cc-pVTZ                      
        Integrals generated by Gateway/Seward, Wed Apr 16 15:36:16 2025        

   CASSCF title (first line only):
       O2, 5B3g 1S                                                             

  STATE IRREP:                7
  SPIN MULTIPLICITY:          5
  ACTIVE ELECTRONS:          12
  MAX RAS1 HOLES:             0
  MAX RAS3 ELECTRONS:         0
  NR OF CONFIG:               8

   Specific data for JOBIPH file JOBIPH20
   -------------------------------------

   Header from SEWARD:
                            O2, D2h symmetry, aug-cc-pVTZ                      
        Integrals generated by Gateway/Seward, Thu Apr 17 10:53:38 2025        

   CASSCF title (first line only):
       O2, 1Au 5S                                                              

  STATE IRREP:                8
  SPIN MULTIPLICITY:          1
  ACTIVE ELECTRONS:          12
  MAX RAS1 HOLES:             0
  MAX RAS3 ELECTRONS:         0
  NR OF CONFIG:              36

   Specific data for JOBIPH file JOBIPH21
   -------------------------------------

   Header from SEWARD:
                            O2, D2h symmetry, aug-cc-pVTZ                      
        Integrals generated by Gateway/Seward, Wed Apr 16 15:36:16 2025        

   CASSCF title (first line only):
       O2, 3Au 6S                                                              

  STATE IRREP:                8
  SPIN MULTIPLICITY:          3
  ACTIVE ELECTRONS:          12
  MAX RAS1 HOLES:             0
  MAX RAS3 ELECTRONS:         0
  NR OF CONFIG:              48

   Specific data for JOBIPH file JOBIPH22
   -------------------------------------

   Header from SEWARD:
                            O2, D2h symmetry, aug-cc-pVTZ                      
        Integrals generated by Gateway/Seward, Wed Apr 16 15:36:16 2025        

   CASSCF title (first line only):
       O2, 5Au 1S                                                              

  STATE IRREP:                8
  SPIN MULTIPLICITY:          5
  ACTIVE ELECTRONS:          12
  MAX RAS1 HOLES:             0
  MAX RAS3 ELECTRONS:         0
  NR OF CONFIG:              12
 ###############################################################################
 ###############################################################################
 ###                                                                         ###
 ###                                                                         ###
 ###    WARNING: EJOB used when HEFF is available, possible                  ###
 ###    extra interaction between states is ignored!                         ###
 ###                                                                         ###
 ###                                                                         ###
 ###############################################################################
 ###############################################################################

   The following data are common to all the states:
   ------------------------------------------------
   (note: frozen counts as inactive, deleted as secondary)

      Nr of irreps: 8

                 Total     No./Irrep 
      Irrep                  1   2   3   4   5   6   7   8
                            ag b3u b2u b1g b1u b2g b3g  au

      INACTIVE       2       1   0   0   0   1   0   0   0
      ACTIVE         8       2   1   1   0   2   1   1   0
      SECONDARY     82      16  10  10   5  16  10  10   5
      BASIS         92      19  11  11   5  19  11  11   5

      RAS1           0       0   0   0   0   0   0   0   0
      RAS2           8       2   1   1   0   2   1   1   0
      RAS3           0       0   0   0   0   0   0   0   0

        MATRIX ELEMENTS WILL BE COMPUTED FOR THE FOLLOWING ONE-ELECTRON OPERATORS, UNLESS ZERO BY SYMMETRY.
   (Herm=Hermitian, Anti=Antihermitian, Sing=Singlet operator, Trip=Triplet operator)
     MLTPL  0   1 (HERMSING)     MLTPL  1   1 (HERMSING)     MLTPL  1   2 (HERMSING)
     MLTPL  1   3 (HERMSING)     MLTPL  2   1 (HERMSING)     MLTPL  2   2 (HERMSING)
     MLTPL  2   3 (HERMSING)     MLTPL  2   4 (HERMSING)     MLTPL  2   5 (HERMSING)
     MLTPL  2   6 (HERMSING)     VELOCITY   1 (ANTISING)     VELOCITY   2 (ANTISING)
     VELOCITY   3 (ANTISING)     ANGMOM     1 (ANTISING)     ANGMOM     2 (ANTISING)
     ANGMOM     3 (ANTISING)     MLTPV  2   1 (ANTISING)     MLTPV  2   2 (ANTISING)
     MLTPV  2   3 (ANTISING)     MLTPV  2   4 (ANTISING)     MLTPV  2   5 (ANTISING)
     MLTPV  2   6 (ANTISING)

       EIGENSTATES OF A SPIN-FREE HAMILTONIAN WILL BE COMPUTED BASED ON:

  a Hamiltonian matrix assumed to be diagonal with energies read from the wavefunction file(s).

  Nr of states:                   99

   State:        1   2   3   4   5   6   7   8   9  10  11  12  13  14  15  16  17  18  19  20
  JobIph:        1   1   1   1   1   1   1   1   1   1   1   1   2   2   2   3   3   3   4   4
 Root nr:        1   2   3   4   5   6   7   8   9  10  11  12   1   2   3   1   2   3   1   2

   State:       21  22  23  24  25  26  27  28  29  30  31  32  33  34  35  36  37  38  39  40
  JobIph:        4   4   4   5   5   5   5   5   5   6   7   7   7   7   7   8   8   8   8   8
 Root nr:        3   4   5   1   2   3   4   5   6   1   1   2   3   4   5   1   2   3   4   5

   State:       41  42  43  44  45  46  47  48  49  50  51  52  53  54  55  56  57  58  59  60
  JobIph:        8   9  10  10  10  10  10  11  11  11  11  11  11  12  13  13  13  14  14  14
 Root nr:        6   1   1   2   3   4   5   1   2   3   4   5   6   1   1   2   3   1   2   3

   State:       61  62  63  64  65  66  67  68  69  70  71  72  73  74  75  76  77  78  79  80
  JobIph:       14  14  14  15  15  15  15  15  16  16  16  16  16  16  17  18  18  18  18  18
 Root nr:        4   5   6   1   2   3   4   5   1   2   3   4   5   6   1   1   2   3   4   5

   State:       81  82  83  84  85  86  87  88  89  90  91  92  93  94  95  96  97  98  99
  JobIph:       19  19  19  19  19  19  20  21  21  21  21  21  22  22  22  22  22  22  23
 Root nr:        1   2   3   4   5   6   1   1   2   3   4   5   1   2   3   4   5   6   1

  HAMILTONIAN MATRIX FOR THE ORIGINAL STATES:

  Diagonal, with energies
   -149.60941249   -149.58417591   -148.64123282   -148.59256979   -148.56345909
   -148.07635417   -147.92773966   -147.88939444   -147.76613906   -147.76069016
   -147.53311962   -147.48972268   -148.01863873   -147.98705965   -147.84164130
   -147.97706258   -147.97026720   -147.05163064   -148.88648158   -148.61532409
   -148.52483082   -147.77759533   -147.72150724   -148.98373660   -148.69474898
   -148.64787020   -147.85761315   -147.81232455   -147.80134225   -147.93435232
   -148.88648158   -148.61532409   -148.52483082   -147.77759533   -147.72150724
   -148.98373660   -148.69474898   -148.64787020   -147.85761315   -147.81232455
   -147.80134225   -147.93435232   -149.60941249   -148.59256979   -147.92773966
   -147.87624829   -147.76613906   -149.65045386   -148.65497493   -148.01863873
   -147.99096962   -147.96676328   -147.88624061   -148.16164815   -148.97589999
   -148.92323913   -148.17637434   -149.24607440   -149.23892312   -148.54230077
   -148.25370858   -148.22152050   -147.58704234   -149.11588418   -148.42271080
   -148.25798748   -148.20569942   -148.14968383   -149.16589280   -148.45687443
   -148.33138905   -148.28737515   -148.27229449   -148.25056663   -148.41410852
   -149.11588418   -148.42271080   -148.25798748   -148.20569942   -148.14968383
   -149.16589280   -148.45687443   -148.33138905   -148.28737515   -148.27229449
   -148.25056663   -148.41410852   -149.25693157   -148.97589999   -148.16059301
   -147.98606473   -147.59232837   -149.24607440   -149.06428957   -148.25370858
   -148.22670852   -148.02438931   -147.66195556   -148.36022153

      OVERLAP MATRIX FOR THE ORIGINAL STATES:

  Diagonal, with elements
      1.00000000      1.00000000      1.00000000      1.00000000      1.00000000
      1.00000000      1.00000000      1.00000000      1.00000000      1.00000000
      1.00000000      1.00000000      1.00000000      1.00000000      1.00000000
      1.00000000      1.00000000      1.00000000      1.00000000      1.00000000
      1.00000000      1.00000000      1.00000000      1.00000000      1.00000000
      1.00000000      1.00000000      1.00000000      1.00000000      1.00000000
      1.00000000      1.00000000      1.00000000      1.00000000      1.00000000
      1.00000000      1.00000000      1.00000000      1.00000000      1.00000000
      1.00000000      1.00000000      1.00000000      1.00000000      1.00000000
      1.00000000      1.00000000      1.00000000      1.00000000      1.00000000
      1.00000000      1.00000000      1.00000000      1.00000000      1.00000000
      1.00000000      1.00000000      1.00000000      1.00000000      1.00000000
      1.00000000      1.00000000      1.00000000      1.00000000      1.00000000
      1.00000000      1.00000000      1.00000000      1.00000000      1.00000000
      1.00000000      1.00000000      1.00000000      1.00000000      1.00000000
      1.00000000      1.00000000      1.00000000      1.00000000      1.00000000
      1.00000000      1.00000000      1.00000000      1.00000000      1.00000000
      1.00000000      1.00000000      1.00000000      1.00000000      1.00000000
      1.00000000      1.00000000      1.00000000      1.00000000      1.00000000
      1.00000000      1.00000000      1.00000000      1.00000000

::    RASSI State    1     Total energy:    -149.60941249490386
::    RASSI State    2     Total energy:    -149.58417590761681
::    RASSI State    3     Total energy:    -148.64123282231012
::    RASSI State    4     Total energy:    -148.59256978727470
::    RASSI State    5     Total energy:    -148.56345908785340
::    RASSI State    6     Total energy:    -148.07635417103566
::    RASSI State    7     Total energy:    -147.92773966347798
::    RASSI State    8     Total energy:    -147.88939444025667
::    RASSI State    9     Total energy:    -147.76613906444422
::    RASSI State   10     Total energy:    -147.76069016006105
::    RASSI State   11     Total energy:    -147.53311962143962
::    RASSI State   12     Total energy:    -147.48972267869567
::    RASSI State   13     Total energy:    -148.01863872585642
::    RASSI State   14     Total energy:    -147.98705965277512
::    RASSI State   15     Total energy:    -147.84164129665734
::    RASSI State   16     Total energy:    -147.97706258222931
::    RASSI State   17     Total energy:    -147.97026720354523
::    RASSI State   18     Total energy:    -147.05163064128973
::    RASSI State   19     Total energy:    -148.88648158443368
::    RASSI State   20     Total energy:    -148.61532409205492
::    RASSI State   21     Total energy:    -148.52483082284857
::    RASSI State   22     Total energy:    -147.77759533184360
::    RASSI State   23     Total energy:    -147.72150724360037
::    RASSI State   24     Total energy:    -148.98373659504287
::    RASSI State   25     Total energy:    -148.69474898426691
::    RASSI State   26     Total energy:    -148.64787020157479
::    RASSI State   27     Total energy:    -147.85761314601979
::    RASSI State   28     Total energy:    -147.81232455368993
::    RASSI State   29     Total energy:    -147.80134225429765
::    RASSI State   30     Total energy:    -147.93435232486493
::    RASSI State   31     Total energy:    -148.88648158443382
::    RASSI State   32     Total energy:    -148.61532409205509
::    RASSI State   33     Total energy:    -148.52483082284860
::    RASSI State   34     Total energy:    -147.77759533184360
::    RASSI State   35     Total energy:    -147.72150724360051
::    RASSI State   36     Total energy:    -148.98373659504284
::    RASSI State   37     Total energy:    -148.69474898426699
::    RASSI State   38     Total energy:    -148.64787020157473
::    RASSI State   39     Total energy:    -147.85761314601984
::    RASSI State   40     Total energy:    -147.81232455369008
::    RASSI State   41     Total energy:    -147.80134225429759
::    RASSI State   42     Total energy:    -147.93435232486493
::    RASSI State   43     Total energy:    -149.60941249490384
::    RASSI State   44     Total energy:    -148.59256978727470
::    RASSI State   45     Total energy:    -147.92773966347789
::    RASSI State   46     Total energy:    -147.87624828677332
::    RASSI State   47     Total energy:    -147.76613906444430
::    RASSI State   48     Total energy:    -149.65045386447574
::    RASSI State   49     Total energy:    -148.65497492786719
::    RASSI State   50     Total energy:    -148.01863872585648
::    RASSI State   51     Total energy:    -147.99096961757695
::    RASSI State   52     Total energy:    -147.96676328063242
::    RASSI State   53     Total energy:    -147.88624060572133
::    RASSI State   54     Total energy:    -148.16164814768763
::    RASSI State   55     Total energy:    -148.97589998865536
::    RASSI State   56     Total energy:    -148.92323913425085
::    RASSI State   57     Total energy:    -148.17637433742803
::    RASSI State   58     Total energy:    -149.24607440073140
::    RASSI State   59     Total energy:    -149.23892312222185
::    RASSI State   60     Total energy:    -148.54230076941067
::    RASSI State   61     Total energy:    -148.25370858161165
::    RASSI State   62     Total energy:    -148.22152050329782
::    RASSI State   63     Total energy:    -147.58704233595941
::    RASSI State   64     Total energy:    -149.11588417816429
::    RASSI State   65     Total energy:    -148.42271079684681
::    RASSI State   66     Total energy:    -148.25798748283364
::    RASSI State   67     Total energy:    -148.20569941572333
::    RASSI State   68     Total energy:    -148.14968383044749
::    RASSI State   69     Total energy:    -149.16589279555845
::    RASSI State   70     Total energy:    -148.45687443189095
::    RASSI State   71     Total energy:    -148.33138905416561
::    RASSI State   72     Total energy:    -148.28737515102330
::    RASSI State   73     Total energy:    -148.27229448626633
::    RASSI State   74     Total energy:    -148.25056663146597
::    RASSI State   75     Total energy:    -148.41410851923987
::    RASSI State   76     Total energy:    -149.11588417816435
::    RASSI State   77     Total energy:    -148.42271079684696
::    RASSI State   78     Total energy:    -148.25798748283356
::    RASSI State   79     Total energy:    -148.20569941572339
::    RASSI State   80     Total energy:    -148.14968383044769
::    RASSI State   81     Total energy:    -149.16589279555851
::    RASSI State   82     Total energy:    -148.45687443189092
::    RASSI State   83     Total energy:    -148.33138905416561
::    RASSI State   84     Total energy:    -148.28737515102341
::    RASSI State   85     Total energy:    -148.27229448626630
::    RASSI State   86     Total energy:    -148.25056663146600
::    RASSI State   87     Total energy:    -148.41410851924007
::    RASSI State   88     Total energy:    -149.25693156876395
::    RASSI State   89     Total energy:    -148.97589998865530
::    RASSI State   90     Total energy:    -148.16059300728608
::    RASSI State   91     Total energy:    -147.98606472812961
::    RASSI State   92     Total energy:    -147.59232837272953
::    RASSI State   93     Total energy:    -149.24607440073154
::    RASSI State   94     Total energy:    -149.06428957450913
::    RASSI State   95     Total energy:    -148.25370858161168
::    RASSI State   96     Total energy:    -148.22670851894918
::    RASSI State   97     Total energy:    -148.02438930703696
::    RASSI State   98     Total energy:    -147.66195556008464
::    RASSI State   99     Total energy:    -148.36022153082260



      ****************************************************************************************************
      *                                                                                                  *
      *                                         Spin-free section                                        *
      *                                                                                                  *
      *                 Note: index according to input order, order according to energy.                 *
      *                                                                                                  *
      ****************************************************************************************************



  SPIN-FREE ENERGIES:
  (Shifted by EMIN (a.u.) =       -149.6504538645)

 SF State       Relative EMIN(au)   Rel lowest level(eV)    D:o, cm**(-1)      L_eff   Abs_M

    48             0.0000000000        0.0000000000              0.0000         1.3     0.0
     1             0.0410413696        1.1167925595           9007.5395         2.2     2.0
    43             0.0410413696        1.1167925595           9007.5395         2.2     2.0
     2             0.0662779569        1.8035150837          14546.3301         1.4     0.0
    88             0.3935222957       10.7082871850          86368.1608         1.1     0.0
    93             0.4043794637       11.0037257779          88751.0337         2.0     2.0
    58             0.4043794637       11.0037257779          88751.0337         2.0     2.0
    59             0.4115307423       11.1983219796          90320.5580         1.1     0.0
    81             0.4845610689       13.1855784061         106348.8620         1.1     1.0
    69             0.4845610689       13.1855784061         106348.8620         1.1     1.0
    76             0.5345696863       14.5463822096         117324.4848         2.3     1.0
    64             0.5345696863       14.5463822096         117324.4848         2.3     1.0
    94             0.5861642900       15.9503428979         128648.1915         1.1     0.0
    24             0.6667172694       18.1423011354         146327.5269         1.7     1.0
    36             0.6667172694       18.1423011354         146327.5269         1.7     1.0
    55             0.6745538758       18.3555460587         148047.4632         2.1     2.0
    89             0.6745538758       18.3555460587         148047.4632         2.1     2.0
    56             0.7272147302       19.7885209079         159605.1848         1.1     0.0
    31             0.7639722800       20.7887447934         167672.5345         1.1     1.0
    19             0.7639722800       20.7887447934         167672.5345         1.1     1.0
    37             0.9557048802       26.0060546325         209752.9763         1.8     1.0
    25             0.9557048802       26.0060546325         209752.9763         1.8     1.0
    49             0.9954789366       27.0883618438         218482.3726         0.8     0.0
    26             1.0025836629       27.2816912951         220041.6798         1.4     1.0
    38             1.0025836629       27.2816912951         220041.6798         1.4     1.0
     3             1.0092210422       27.4623035859         221498.4162         1.8     0.0
    32             1.0351297724       28.1673160521         227184.7252         1.5     1.0
    20             1.0351297724       28.1673160521         227184.7252         1.5     1.0
    44             1.0578840772       28.7864922282         232178.7179         1.8     2.0
     4             1.0578840772       28.7864922282         232178.7179         1.8     2.0
     5             1.0869947766       29.5786347140         238567.7779         1.0     0.0
    60             1.1081530951       30.1543818895         243211.4920         1.5     0.0
    33             1.1256230416       30.6297633531         247045.7021         1.9     1.0
    21             1.1256230416       30.6297633531         247045.7021         1.9     1.0
    70             1.1935794326       32.4789509553         261960.4060         1.0     1.0
    82             1.1935794326       32.4789509553         261960.4060         1.0     1.0
    77             1.2277430676       33.4085908241         269458.4572         1.7     1.0
    65             1.2277430676       33.4085908241         269458.4572         1.7     1.0
    87             1.2363453452       33.6426707226         271346.4389         1.4     1.0
    75             1.2363453452       33.6426707226         271346.4389         1.4     1.0
    99             1.2902323337       35.1090103781         283173.2658         0.0     0.0
    71             1.3190648103       35.8935820368         289501.2630         1.5     1.0
    83             1.3190648103       35.8935820368         289501.2630         1.5     1.0
    84             1.3630787135       37.0912613554         299161.1982         2.6     3.0
    72             1.3630787135       37.0912613554         299161.1982         2.6     3.0
    73             1.3781593782       37.5016271490         302471.0215         1.3     1.0
    85             1.3781593782       37.5016271490         302471.0215         1.3     1.0
    66             1.3924663816       37.8909405454         305611.0458         1.4     1.0
    78             1.3924663816       37.8909405454         305611.0458         1.4     1.0
    95             1.3967452829       38.0073753793         306550.1561         1.9     2.0
    61             1.3967452829       38.0073753793         306550.1561         1.9     2.0
    86             1.3998872330       38.0928721982         307239.7344         1.0     1.0
    74             1.3998872330       38.0928721982         307239.7344         1.0     1.0
    96             1.4237453455       38.7420845130         312475.9849         1.3     0.0
    62             1.4289333612       38.8832576108         313614.6227         0.8     0.0
    79             1.4447544488       39.3137713356         317086.9501         3.0     3.0
    67             1.4447544488       39.3137713356         317086.9501         3.0     3.0
    57             1.4740795270       40.1117473678         323523.0608         1.4     0.0
    54             1.4888057168       40.5124674047         326755.0859         1.1     0.0
    90             1.4898608572       40.5411792378         326986.6624         1.6     0.0
    80             1.5007700340       40.8380330623         329380.9500         1.6     1.0
    68             1.5007700340       40.8380330623         329380.9500         1.6     1.0
     6             1.5740996934       42.8334347479         345474.9499         1.0     0.0
    97             1.6260645574       44.2474707334         356879.9193         0.6     0.0
    50             1.6318151386       44.4039520190         358142.0260         1.9     2.0
    13             1.6318151386       44.4039520190         358142.0260         1.9     2.0
    51             1.6594842469       45.1568668115         364214.6933         1.0     0.0
    14             1.6633942117       45.2632623739         365072.8314         0.8     0.0
    91             1.6643891363       45.2903356527         365291.1921         0.7     0.0
    16             1.6733912822       45.5352965219         367266.9348         0.8     0.0
    17             1.6801866609       45.7202081959         368758.3480         0.7     0.0
    52             1.6836905838       45.8155547957         369527.3702         0.2     0.0
    42             1.7161015396       46.6975018317         376640.7528         0.6     1.0
    30             1.7161015396       46.6975018317         376640.7528         0.6     1.0
     7             1.7227142010       46.8774415148         378092.0642         1.8     2.0
    45             1.7227142010       46.8774415148         378092.0642         1.8     2.0
     8             1.7610594242       47.9208681946         386507.8679         0.6     0.0
    53             1.7642132588       48.0066884042         387200.0546         1.4     0.0
    46             1.7742055777       48.2785932546         389393.1151         0.5     0.0
    39             1.7928407185       48.7856812674         393483.0558         0.9     1.0
    27             1.7928407185       48.7856812674         393483.0558         0.9     1.0
    15             1.8088125678       49.2202974295         396988.4715         1.4     0.0
    40             1.8381293108       50.0180466458         403422.7529         2.6     3.0
    28             1.8381293108       50.0180466459         403422.7529         2.6     3.0
    29             1.8491116102       50.3168902365         405833.0890         0.9     1.0
    41             1.8491116102       50.3168902365         405833.0890         0.9     1.0
    22             1.8728585326       50.9630769155         411044.9360         1.0     1.0
    34             1.8728585326       50.9630769155         411044.9360         1.0     1.0
    47             1.8843148000       51.2748178327         413559.2961         2.4     2.0
     9             1.8843148000       51.2748178327         413559.2961         2.4     2.0
    10             1.8897637044       51.4230900745         414755.1924         1.6     0.0
    35             1.9289466209       52.4893115485         423354.8485         2.6     3.0
    23             1.9289466209       52.4893115485         423354.8485         2.6     3.0
    98             1.9884983044       54.1097954103         436424.9323         0.8     0.0
    92             2.0581254917       56.0044476986         451706.3336         0.8     0.0
    63             2.0634115285       56.1482880869         452866.4846         0.6     0.0
    11             2.1173342430       57.6155998991         464701.1525         0.1     0.0
    12             2.1607311858       58.7964908700         474225.6805         0.2     0.0
    18             2.5988232232       70.7175825111         570375.7689         0.0     0.0

++ Dipole transition strengths (spin-free states):
   -----------------------------------------------
     for osc. strength at least  1.00000000E-05

      From   To        Osc. strength     Einstein coefficients Ax, Ay, Az (sec-1)    Total A (sec-1)
     -----------------------------------------------------------------------------------------------
        48   94       3.33672563E-01  0.00000000E+00  0.00000000E+00  3.68357990E+09  3.68357990E+09
        48   24       1.52682168E-01  0.00000000E+00  2.18063315E+09  0.00000000E+00  2.18063315E+09
        48   36       1.52682168E-01  2.18063315E+09  0.00000000E+00  0.00000000E+00  2.18063315E+09
        48   37       2.97003197E-02  8.71604804E+08  0.00000000E+00  0.00000000E+00  8.71604804E+08
        48   25       2.97003197E-02  0.00000000E+00  8.71604804E+08  0.00000000E+00  8.71604804E+08
        48   26       1.77407539E-02  0.00000000E+00  5.72959864E+08  0.00000000E+00  5.72959864E+08
        48   38       1.77407539E-02  5.72959864E+08  0.00000000E+00  0.00000000E+00  5.72959864E+08
        48   96       1.39444102E-02  0.00000000E+00  0.00000000E+00  9.08187806E+08  9.08187806E+08
        48   97       9.77448018E-01  0.00000000E+00  0.00000000E+00  8.30386195E+10  8.30386195E+10
        48   39       2.00827938E-04  2.07404620E+07  0.00000000E+00  0.00000000E+00  2.07404620E+07
        48   27       2.00827938E-04  0.00000000E+00  2.07404620E+07  0.00000000E+00  2.07404620E+07
        48   29       8.54547291E-04  0.00000000E+00  9.38800334E+07  0.00000000E+00  9.38800334E+07
        48   41       8.54547291E-04  9.38800334E+07  0.00000000E+00  0.00000000E+00  9.38800334E+07
        48   98       3.67964541E-02  0.00000000E+00  0.00000000E+00  4.67484593E+09  4.67484593E+09
         1   55       3.24429377E-01  0.00000000E+00  0.00000000E+00  4.18351607E+09  4.18351607E+09
         1   31       1.41620974E-01  0.00000000E+00  2.37811061E+09  0.00000000E+00  2.37811061E+09
         1   19       1.41620974E-01  2.37811061E+09  0.00000000E+00  0.00000000E+00  2.37811061E+09
         1   32       2.75353589E-02  0.00000000E+00  8.74282204E+08  0.00000000E+00  8.74282204E+08
         1   20       2.75353589E-02  8.74282204E+08  0.00000000E+00  0.00000000E+00  8.74282204E+08
         1   33       7.18178207E-02  0.00000000E+00  2.71436113E+09  0.00000000E+00  2.71436113E+09
         1   21       7.18178207E-02  2.71436113E+09  0.00000000E+00  0.00000000E+00  2.71436113E+09
         1   22       1.54749532E-05  1.66841650E+06  0.00000000E+00  0.00000000E+00  1.66841650E+06
         1   34       1.54749532E-05  0.00000000E+00  1.66841650E+06  0.00000000E+00  1.66841650E+06
         1   35       2.77816848E-04  0.00000000E+00  3.18148480E+07  0.00000000E+00  3.18148480E+07
         1   23       2.77816849E-04  3.18148480E+07  0.00000000E+00  0.00000000E+00  3.18148480E+07
        43   89       3.24429377E-01  0.00000000E+00  0.00000000E+00  4.18351607E+09  4.18351607E+09
        43   31       1.41620974E-01  2.37811061E+09  0.00000000E+00  0.00000000E+00  2.37811061E+09
        43   19       1.41620974E-01  0.00000000E+00  2.37811061E+09  0.00000000E+00  2.37811061E+09
        43   32       2.75353589E-02  8.74282204E+08  0.00000000E+00  0.00000000E+00  8.74282204E+08
        43   20       2.75353589E-02  0.00000000E+00  8.74282204E+08  0.00000000E+00  8.74282204E+08
        43   33       7.18178207E-02  2.71436113E+09  0.00000000E+00  0.00000000E+00  2.71436113E+09
        43   21       7.18178207E-02  0.00000000E+00  2.71436113E+09  0.00000000E+00  2.71436113E+09
        43   91       9.85820726E-01  0.00000000E+00  0.00000000E+00  8.34702978E+10  8.34702978E+10
        43   22       1.54749532E-05  0.00000000E+00  1.66841650E+06  0.00000000E+00  1.66841650E+06
        43   34       1.54749532E-05  1.66841650E+06  0.00000000E+00  0.00000000E+00  1.66841650E+06
        43   35       2.77816849E-04  3.18148480E+07  0.00000000E+00  0.00000000E+00  3.18148480E+07
        43   23       2.77816848E-04  0.00000000E+00  3.18148480E+07  0.00000000E+00  3.18148480E+07
         2   56       3.28365906E-01  0.00000000E+00  0.00000000E+00  4.60880967E+09  4.60880967E+09
         2   31       1.37398599E-01  0.00000000E+00  2.14893642E+09  0.00000000E+00  2.14893642E+09
         2   19       1.37398599E-01  2.14893642E+09  0.00000000E+00  0.00000000E+00  2.14893642E+09
         2   32       2.08110870E-02  0.00000000E+00  6.27654089E+08  0.00000000E+00  6.27654089E+08
         2   20       2.08110870E-02  6.27654089E+08  0.00000000E+00  0.00000000E+00  6.27654089E+08
         2   33       2.40531962E-02  0.00000000E+00  8.67278516E+08  0.00000000E+00  8.67278516E+08
         2   21       2.40531962E-02  8.67278516E+08  0.00000000E+00  0.00000000E+00  8.67278516E+08
         2   57       6.14309923E-02  0.00000000E+00  0.00000000E+00  3.91184199E+09  3.91184199E+09
         2   22       5.03415348E-04  5.27900420E+07  0.00000000E+00  0.00000000E+00  5.27900420E+07
         2   34       5.03415348E-04  0.00000000E+00  5.27900420E+07  0.00000000E+00  5.27900420E+07
        88   76       7.38358146E-03  4.71963122E+06  0.00000000E+00  0.00000000E+00  4.71963122E+06
        88   64       7.38358146E-03  0.00000000E+00  4.71963122E+06  0.00000000E+00  4.71963122E+06
        88   77       1.26490473E-01  2.82833404E+09  0.00000000E+00  0.00000000E+00  2.82833404E+09
        88   65       1.26490473E-01  0.00000000E+00  2.82833404E+09  0.00000000E+00  2.82833404E+09
        88   66       5.29838166E-02  0.00000000E+00  1.69877743E+09  0.00000000E+00  1.69877743E+09
        88   78       5.29838166E-02  1.69877743E+09  0.00000000E+00  0.00000000E+00  1.69877743E+09
        88   80       1.50275838E-02  5.91956297E+08  0.00000000E+00  0.00000000E+00  5.91956297E+08
        88   68       1.50275838E-02  0.00000000E+00  5.91956297E+08  0.00000000E+00  5.91956297E+08
        88   46       2.68187238E-02  0.00000000E+00  0.00000000E+00  1.64262006E+09  1.64262006E+09
        93   81       3.46029708E-03  7.14782254E+05  0.00000000E+00  0.00000000E+00  7.14782254E+05
        93   69       3.46029708E-03  0.00000000E+00  7.14782254E+05  0.00000000E+00  7.14782254E+05
        93   70       8.65615360E-02  0.00000000E+00  1.73224755E+09  0.00000000E+00  1.73224755E+09
        93   82       8.65615360E-02  1.73224755E+09  0.00000000E+00  0.00000000E+00  1.73224755E+09
        93   71       6.81826434E-03  0.00000000E+00  1.83285522E+08  0.00000000E+00  1.83285522E+08
        93   83       6.81826434E-03  1.83285522E+08  0.00000000E+00  0.00000000E+00  1.83285522E+08
        93   84       8.09014266E-03  2.38908630E+08  0.00000000E+00  0.00000000E+00  2.38908630E+08
        93   72       8.09014266E-03  0.00000000E+00  2.38908630E+08  0.00000000E+00  2.38908630E+08
        93   73       2.32520104E-03  0.00000000E+00  7.08423592E+07  0.00000000E+00  7.08423592E+07
        93   85       2.32520104E-03  7.08423592E+07  0.00000000E+00  0.00000000E+00  7.08423592E+07
        93   86       6.00193599E-03  1.91113581E+08  0.00000000E+00  0.00000000E+00  1.91113581E+08
        93   74       6.00193599E-03  0.00000000E+00  1.91113581E+08  0.00000000E+00  1.91113581E+08
        93   50       5.00141812E-03  0.00000000E+00  0.00000000E+00  2.42103757E+08  2.42103757E+08
        58   81       3.46029708E-03  0.00000000E+00  7.14782254E+05  0.00000000E+00  7.14782254E+05
        58   69       3.46029708E-03  7.14782254E+05  0.00000000E+00  0.00000000E+00  7.14782254E+05
        58   70       8.65615360E-02  1.73224755E+09  0.00000000E+00  0.00000000E+00  1.73224755E+09
        58   82       8.65615360E-02  0.00000000E+00  1.73224755E+09  0.00000000E+00  1.73224755E+09
        58   71       6.81826434E-03  1.83285522E+08  0.00000000E+00  0.00000000E+00  1.83285522E+08
        58   83       6.81826434E-03  0.00000000E+00  1.83285522E+08  0.00000000E+00  1.83285522E+08
        58   84       8.09014266E-03  0.00000000E+00  2.38908630E+08  0.00000000E+00  2.38908630E+08
        58   72       8.09014266E-03  2.38908630E+08  0.00000000E+00  0.00000000E+00  2.38908630E+08
        58   73       2.32520104E-03  7.08423592E+07  0.00000000E+00  0.00000000E+00  7.08423592E+07
        58   85       2.32520104E-03  0.00000000E+00  7.08423592E+07  0.00000000E+00  7.08423592E+07
        58   86       6.00193599E-03  0.00000000E+00  1.91113581E+08  0.00000000E+00  1.91113581E+08
        58   74       6.00193599E-03  1.91113581E+08  0.00000000E+00  0.00000000E+00  1.91113581E+08
        58   13       5.00141812E-03  0.00000000E+00  0.00000000E+00  2.42103757E+08  2.42103757E+08
        59   81       3.14036391E-03  0.00000000E+00  5.38142568E+05  0.00000000E+00  5.38142568E+05
        59   69       3.14036391E-03  5.38142568E+05  0.00000000E+00  0.00000000E+00  5.38142568E+05
        59   70       8.56589787E-02  1.68326061E+09  0.00000000E+00  0.00000000E+00  1.68326061E+09
        59   82       8.56589787E-02  0.00000000E+00  1.68326061E+09  0.00000000E+00  1.68326061E+09
        59   71       2.53346581E-03  6.70427475E+07  0.00000000E+00  0.00000000E+00  6.70427475E+07
        59   83       2.53346581E-03  0.00000000E+00  6.70427476E+07  0.00000000E+00  6.70427476E+07
        59   73       9.77729721E-03  2.93527647E+08  0.00000000E+00  0.00000000E+00  2.93527647E+08
        59   85       9.77729721E-03  0.00000000E+00  2.93527647E+08  0.00000000E+00  2.93527647E+08
        59   86       2.15700789E-02  0.00000000E+00  6.77001849E+08  0.00000000E+00  6.77001849E+08
        59   74       2.15700789E-02  6.77001849E+08  0.00000000E+00  0.00000000E+00  6.77001849E+08
        59   14       7.16315771E-03  0.00000000E+00  0.00000000E+00  3.60686036E+08  3.60686036E+08
        59   15       1.67382448E-03  0.00000000E+00  0.00000000E+00  1.04999884E+08  1.04999884E+08
        81   94       1.04247370E-03  3.45772893E+05  0.00000000E+00  0.00000000E+00  3.45772893E+05
        81   36       8.57622292E-02  0.00000000E+00  0.00000000E+00  9.14312931E+07  9.14312931E+07
        81   37       1.31670697E-03  0.00000000E+00  0.00000000E+00  9.39089529E+06  9.39089529E+06
        81   38       2.86100191E-01  0.00000000E+00  0.00000000E+00  2.46675737E+09  2.46675737E+09
        81   60       1.69028838E-01  0.00000000E+00  2.11189730E+09  0.00000000E+00  2.11189730E+09
        81   95       1.00600379E-02  2.68952512E+08  0.00000000E+00  0.00000000E+00  2.68952512E+08
        81   61       1.00600379E-02  0.00000000E+00  2.68952512E+08  0.00000000E+00  2.68952512E+08
        81   96       2.44656115E-02  6.93375646E+08  0.00000000E+00  0.00000000E+00  6.93375646E+08
        81   62       3.02342147E-02  0.00000000E+00  8.66355323E+08  0.00000000E+00  8.66355323E+08
        81   97       1.60458759E-02  6.71782673E+08  0.00000000E+00  0.00000000E+00  6.71782673E+08
        81   39       9.55062535E-04  0.00000000E+00  0.00000000E+00  5.25223154E+07  5.25223154E+07
        81   41       4.73505812E-03  0.00000000E+00  0.00000000E+00  2.83279697E+08  2.83279697E+08
        81   98       6.99899218E-05  5.08634501E+06  0.00000000E+00  0.00000000E+00  5.08634501E+06
        81   63       1.44624429E-04  0.00000000E+00  1.15833595E+07  0.00000000E+00  1.15833595E+07
        69   94       1.04247370E-03  0.00000000E+00  3.45772893E+05  0.00000000E+00  3.45772893E+05
        69   24       8.57622292E-02  0.00000000E+00  0.00000000E+00  9.14312931E+07  9.14312931E+07
        69   25       1.31670697E-03  0.00000000E+00  0.00000000E+00  9.39089529E+06  9.39089529E+06
        69   26       2.86100191E-01  0.00000000E+00  0.00000000E+00  2.46675737E+09  2.46675737E+09
        69   60       1.69028838E-01  2.11189730E+09  0.00000000E+00  0.00000000E+00  2.11189730E+09
        69   95       1.00600379E-02  0.00000000E+00  2.68952512E+08  0.00000000E+00  2.68952512E+08
        69   61       1.00600379E-02  2.68952512E+08  0.00000000E+00  0.00000000E+00  2.68952512E+08
        69   96       2.44656115E-02  0.00000000E+00  6.93375646E+08  0.00000000E+00  6.93375646E+08
        69   62       3.02342147E-02  8.66355324E+08  0.00000000E+00  0.00000000E+00  8.66355324E+08
        69   97       1.60458759E-02  0.00000000E+00  6.71782673E+08  0.00000000E+00  6.71782673E+08
        69   27       9.55062535E-04  0.00000000E+00  0.00000000E+00  5.25223154E+07  5.25223154E+07
        69   29       4.73505812E-03  0.00000000E+00  0.00000000E+00  2.83279697E+08  2.83279697E+08
        69   98       6.99899218E-05  0.00000000E+00  5.08634501E+06  0.00000000E+00  5.08634501E+06
        69   63       1.44624429E-04  1.15833595E+07  0.00000000E+00  0.00000000E+00  1.15833595E+07
        76   55       6.59169966E-04  0.00000000E+00  4.15017365E+05  0.00000000E+00  4.15017365E+05
        76   89       6.59169966E-04  4.15017365E+05  0.00000000E+00  0.00000000E+00  4.15017365E+05
        76   56       2.28928714E-04  0.00000000E+00  2.72977488E+05  0.00000000E+00  2.72977488E+05
        76   31       4.58368530E-02  0.00000000E+00  0.00000000E+00  7.75036799E+07  7.75036799E+07
        76   32       6.20890207E-03  0.00000000E+00  0.00000000E+00  4.99848193E+07  4.99848193E+07
        76   33       3.91867069E-01  0.00000000E+00  0.00000000E+00  4.39848409E+09  4.39848409E+09
        76   57       1.78414197E-01  0.00000000E+00  5.05991196E+09  0.00000000E+00  5.05991196E+09
        76   90       4.04096675E-02  1.18486177E+09  0.00000000E+00  0.00000000E+00  1.18486177E+09
        76   91       1.08758286E-02  4.46057997E+08  0.00000000E+00  0.00000000E+00  4.46057997E+08
        76   34       4.12104961E-04  0.00000000E+00  0.00000000E+00  2.37147441E+07  2.37147441E+07
        64   55       6.59169966E-04  4.15017365E+05  0.00000000E+00  0.00000000E+00  4.15017365E+05
        64   89       6.59169966E-04  0.00000000E+00  4.15017365E+05  0.00000000E+00  4.15017365E+05
        64   56       2.28928714E-04  2.72977488E+05  0.00000000E+00  0.00000000E+00  2.72977488E+05
        64   19       4.58368530E-02  0.00000000E+00  0.00000000E+00  7.75036799E+07  7.75036799E+07
        64   20       6.20890207E-03  0.00000000E+00  0.00000000E+00  4.99848193E+07  4.99848193E+07
        64   21       3.91867069E-01  0.00000000E+00  0.00000000E+00  4.39848409E+09  4.39848409E+09
        64   57       1.78414197E-01  5.05991196E+09  0.00000000E+00  0.00000000E+00  5.05991196E+09
        64   90       4.04096675E-02  0.00000000E+00  1.18486177E+09  0.00000000E+00  1.18486177E+09
        64   91       1.08758286E-02  0.00000000E+00  4.46057997E+08  0.00000000E+00  4.46057997E+08
        64   22       4.12104961E-04  0.00000000E+00  0.00000000E+00  2.37147441E+07  2.37147441E+07
        94   49       3.58609683E-01  0.00000000E+00  0.00000000E+00  1.93040070E+09  1.93040070E+09
        94   70       6.60589278E-02  0.00000000E+00  7.83093523E+08  0.00000000E+00  7.83093523E+08
        94   82       6.60589278E-02  7.83093523E+08  0.00000000E+00  0.00000000E+00  7.83093523E+08
        94   71       8.29130560E-03  0.00000000E+00  1.43094805E+08  0.00000000E+00  1.43094805E+08
        94   83       8.29130560E-03  1.43094805E+08  0.00000000E+00  0.00000000E+00  1.43094805E+08
        94   73       1.42139141E-02  0.00000000E+00  2.86463666E+08  0.00000000E+00  2.86463666E+08
        94   85       1.42139141E-02  2.86463666E+08  0.00000000E+00  0.00000000E+00  2.86463666E+08
        94   86       3.18096040E-02  6.76740657E+08  0.00000000E+00  0.00000000E+00  6.76740657E+08
        94   74       3.18096040E-02  0.00000000E+00  6.76740657E+08  0.00000000E+00  6.76740657E+08
        94   51       2.37698159E-02  0.00000000E+00  0.00000000E+00  8.79822592E+08  8.79822592E+08
        94   52       3.94357273E-02  0.00000000E+00  0.00000000E+00  1.52626732E+09  1.52626732E+09
        94   53       4.26645442E-02  0.00000000E+00  0.00000000E+00  1.90241246E+09  1.90241246E+09
        24   49       1.83095579E-04  0.00000000E+00  6.35844750E+05  0.00000000E+00  6.35844750E+05
        24   70       6.94807553E-02  0.00000000E+00  0.00000000E+00  6.19682790E+08  6.19682790E+08
        24   71       1.21225181E-03  0.00000000E+00  0.00000000E+00  1.65753148E+07  1.65753148E+07
        24   73       4.07411231E-02  0.00000000E+00  0.00000000E+00  6.62556644E+08  6.62556644E+08
        24   74       1.20679323E-02  0.00000000E+00  0.00000000E+00  2.08426567E+08  2.08426567E+08
        24   50       4.83858578E-03  0.00000000E+00  1.44801160E+08  0.00000000E+00  1.44801160E+08
        24   13       4.83858578E-03  1.44801160E+08  0.00000000E+00  0.00000000E+00  1.44801160E+08
        24   51       3.57171763E-02  0.00000000E+00  1.13105219E+09  0.00000000E+00  1.13105219E+09
        24   14       1.77302186E-02  5.65892315E+08  0.00000000E+00  0.00000000E+00  5.65892315E+08
        24   52       2.77877292E-03  0.00000000E+00  9.23385511E+07  0.00000000E+00  9.23385511E+07
        24   53       3.02360833E-04  0.00000000E+00  1.17015206E+07  0.00000000E+00  1.17015206E+07
        24   15       1.18633915E-03  4.97192345E+07  0.00000000E+00  0.00000000E+00  4.97192345E+07
        36   49       1.83095579E-04  6.35844750E+05  0.00000000E+00  0.00000000E+00  6.35844750E+05
        36   82       6.94807553E-02  0.00000000E+00  0.00000000E+00  6.19682790E+08  6.19682790E+08
        36   83       1.21225181E-03  0.00000000E+00  0.00000000E+00  1.65753148E+07  1.65753148E+07
        36   85       4.07411231E-02  0.00000000E+00  0.00000000E+00  6.62556644E+08  6.62556644E+08
        36   86       1.20679323E-02  0.00000000E+00  0.00000000E+00  2.08426567E+08  2.08426567E+08
        36   50       4.83858578E-03  1.44801160E+08  0.00000000E+00  0.00000000E+00  1.44801160E+08
        36   13       4.83858578E-03  0.00000000E+00  1.44801160E+08  0.00000000E+00  1.44801160E+08
        36   51       3.57171763E-02  1.13105219E+09  0.00000000E+00  0.00000000E+00  1.13105219E+09
        36   14       1.77302186E-02  0.00000000E+00  5.65892315E+08  0.00000000E+00  5.65892315E+08
        36   52       2.77877292E-03  9.23385511E+07  0.00000000E+00  0.00000000E+00  9.23385511E+07
        36   53       3.02360833E-04  1.17015206E+07  0.00000000E+00  0.00000000E+00  1.17015206E+07
        36   15       1.18633915E-03  0.00000000E+00  4.97192345E+07  0.00000000E+00  4.97192345E+07
        55    4       3.56900567E-01  0.00000000E+00  0.00000000E+00  1.68501665E+09  1.68501665E+09
        55   77       1.96610532E-02  0.00000000E+00  1.93314768E+08  0.00000000E+00  1.93314768E+08
        55   65       1.96610532E-02  1.93314768E+08  0.00000000E+00  0.00000000E+00  1.93314768E+08
        55   66       3.26696141E-04  5.41000822E+06  0.00000000E+00  0.00000000E+00  5.41000822E+06
        55   78       3.26696141E-04  0.00000000E+00  5.41000822E+06  0.00000000E+00  5.41000822E+06
        55   79       6.46041093E-03  0.00000000E+00  1.23134202E+08  0.00000000E+00  1.23134202E+08
        55   67       6.46041093E-03  1.23134202E+08  0.00000000E+00  0.00000000E+00  1.23134202E+08
        55   80       6.64915673E-03  0.00000000E+00  1.45836026E+08  0.00000000E+00  1.45836026E+08
        55   68       6.64915673E-03  1.45836026E+08  0.00000000E+00  0.00000000E+00  1.45836026E+08
        55    7       6.58385702E-02  0.00000000E+00  0.00000000E+00  2.32405664E+09  2.32405664E+09
        55    9       2.05046851E-02  0.00000000E+00  0.00000000E+00  9.64191042E+08  9.64191042E+08
        89   44       3.56900567E-01  0.00000000E+00  0.00000000E+00  1.68501665E+09  1.68501665E+09
        89   77       1.96610532E-02  1.93314768E+08  0.00000000E+00  0.00000000E+00  1.93314768E+08
        89   65       1.96610532E-02  0.00000000E+00  1.93314768E+08  0.00000000E+00  1.93314768E+08
        89   66       3.26696141E-04  0.00000000E+00  5.41000822E+06  0.00000000E+00  5.41000822E+06
        89   78       3.26696141E-04  5.41000822E+06  0.00000000E+00  0.00000000E+00  5.41000822E+06
        89   79       6.46041093E-03  1.23134202E+08  0.00000000E+00  0.00000000E+00  1.23134202E+08
        89   67       6.46041093E-03  0.00000000E+00  1.23134202E+08  0.00000000E+00  1.23134202E+08
        89   80       6.64915673E-03  1.45836026E+08  0.00000000E+00  0.00000000E+00  1.45836026E+08
        89   68       6.64915673E-03  0.00000000E+00  1.45836026E+08  0.00000000E+00  1.45836026E+08
        89   45       6.58385702E-02  0.00000000E+00  0.00000000E+00  2.32405664E+09  2.32405664E+09
        89   47       2.05046851E-02  0.00000000E+00  0.00000000E+00  9.64191042E+08  9.64191042E+08
        56    3       3.92437830E-03  0.00000000E+00  0.00000000E+00  1.00276555E+07  1.00276555E+07
        56    5       3.44743944E-01  0.00000000E+00  0.00000000E+00  1.43377722E+09  1.43377722E+09
        56   77       6.31641082E-03  0.00000000E+00  5.08438691E+07  0.00000000E+00  5.08438691E+07
        56   65       6.31641082E-03  5.08438691E+07  0.00000000E+00  0.00000000E+00  5.08438691E+07
        56   66       3.43926679E-03  4.89044829E+07  0.00000000E+00  0.00000000E+00  4.89044829E+07
        56   78       3.43926679E-03  0.00000000E+00  4.89044829E+07  0.00000000E+00  4.89044829E+07
        56   80       1.33189034E-02  0.00000000E+00  2.56071998E+08  0.00000000E+00  2.56071998E+08
        56   68       1.33189034E-02  2.56071998E+08  0.00000000E+00  0.00000000E+00  2.56071998E+08
        56    6       1.73710362E-02  0.00000000E+00  0.00000000E+00  4.00299873E+08  4.00299873E+08
        56    8       4.41756777E-02  0.00000000E+00  0.00000000E+00  1.51706682E+09  1.51706682E+09
        56   10       1.14738670E-02  0.00000000E+00  0.00000000E+00  4.98245298E+08  4.98245298E+08
        56   11       1.62512906E-02  0.00000000E+00  0.00000000E+00  1.00902754E+09  1.00902754E+09
        56   12       2.10251327E-01  0.00000000E+00  0.00000000E+00  1.38820944E+10  1.38820944E+10
        31    3       2.96690065E-02  0.00000000E+00  5.73360190E+07  0.00000000E+00  5.73360190E+07
        31   44       2.31706024E-03  6.43105531E+06  0.00000000E+00  0.00000000E+00  6.43105531E+06
        31    4       2.31706024E-03  0.00000000E+00  6.43105531E+06  0.00000000E+00  6.43105531E+06
        31    5       1.22759861E-02  0.00000000E+00  4.11559670E+07  0.00000000E+00  4.11559670E+07
        31   77       2.09208509E-03  0.00000000E+00  0.00000000E+00  1.44576267E+07  1.44576267E+07
        31   78       7.67838386E-05  0.00000000E+00  0.00000000E+00  9.74502854E+05  9.74502854E+05
        31   80       2.83490331E-04  0.00000000E+00  0.00000000E+00  4.94476572E+06  4.94476572E+06
        31    6       2.24490759E-01  0.00000000E+00  4.73386652E+09  0.00000000E+00  4.73386652E+09
        31    7       2.04349748E-02  0.00000000E+00  6.03515495E+08  0.00000000E+00  6.03515495E+08
        31   45       2.04349748E-02  6.03515495E+08  0.00000000E+00  0.00000000E+00  6.03515495E+08
        31    8       7.21166954E-02  0.00000000E+00  2.30363111E+09  0.00000000E+00  2.30363111E+09
        31   46       2.38042526E-02  7.80564490E+08  0.00000000E+00  0.00000000E+00  7.80564490E+08
        31   47       1.14372553E-03  4.61247832E+07  0.00000000E+00  0.00000000E+00  4.61247832E+07
        31    9       1.14372553E-03  0.00000000E+00  4.61247832E+07  0.00000000E+00  4.61247832E+07
        31   10       4.60854077E-04  0.00000000E+00  1.87667984E+07  0.00000000E+00  1.87667984E+07
        31   11       2.94289624E-05  0.00000000E+00  1.73186392E+06  0.00000000E+00  1.73186392E+06
        31   12       8.51496399E-03  0.00000000E+00  5.33748413E+08  0.00000000E+00  5.33748413E+08
        19    3       2.96690065E-02  5.73360190E+07  0.00000000E+00  0.00000000E+00  5.73360190E+07
        19   44       2.31706024E-03  0.00000000E+00  6.43105531E+06  0.00000000E+00  6.43105531E+06
        19    4       2.31706024E-03  6.43105531E+06  0.00000000E+00  0.00000000E+00  6.43105531E+06
        19    5       1.22759861E-02  4.11559670E+07  0.00000000E+00  0.00000000E+00  4.11559670E+07
        19   65       2.09208509E-03  0.00000000E+00  0.00000000E+00  1.44576267E+07  1.44576267E+07
        19   66       7.67838386E-05  0.00000000E+00  0.00000000E+00  9.74502854E+05  9.74502854E+05
        19   68       2.83490331E-04  0.00000000E+00  0.00000000E+00  4.94476572E+06  4.94476572E+06
        19    6       2.24490759E-01  4.73386652E+09  0.00000000E+00  0.00000000E+00  4.73386652E+09
        19    7       2.04349748E-02  6.03515495E+08  0.00000000E+00  0.00000000E+00  6.03515495E+08
        19   45       2.04349748E-02  0.00000000E+00  6.03515495E+08  0.00000000E+00  6.03515495E+08
        19    8       7.21166954E-02  2.30363111E+09  0.00000000E+00  0.00000000E+00  2.30363111E+09
        19   46       2.38042526E-02  0.00000000E+00  7.80564490E+08  0.00000000E+00  7.80564490E+08
        19   47       1.14372553E-03  0.00000000E+00  4.61247832E+07  0.00000000E+00  4.61247832E+07
        19    9       1.14372553E-03  4.61247832E+07  0.00000000E+00  0.00000000E+00  4.61247832E+07
        19   10       4.60854077E-04  1.87667984E+07  0.00000000E+00  0.00000000E+00  1.87667984E+07
        19   11       2.94289624E-05  1.73186392E+06  0.00000000E+00  0.00000000E+00  1.73186392E+06
        19   12       8.51496399E-03  5.33748413E+08  0.00000000E+00  0.00000000E+00  5.33748413E+08
        37   49       7.80657251E-05  3.96799441E+03  0.00000000E+00  0.00000000E+00  3.96799441E+03
        37   82       7.75612754E-03  0.00000000E+00  0.00000000E+00  1.41010610E+07  1.41010610E+07
        37   83       2.20097243E-03  0.00000000E+00  0.00000000E+00  9.33683215E+06  9.33683215E+06
        37   85       9.27760520E-04  0.00000000E+00  0.00000000E+00  5.31993894E+06  5.31993894E+06
        37   86       3.30421111E-04  0.00000000E+00  0.00000000E+00  2.09460083E+06  2.09460083E+06
        37   50       7.36619587E-02  1.08190517E+09  0.00000000E+00  0.00000000E+00  1.08190517E+09
        37   13       7.36619587E-02  0.00000000E+00  1.08190517E+09  0.00000000E+00  1.08190517E+09
        37   51       1.43329181E-02  2.28096468E+08  0.00000000E+00  0.00000000E+00  2.28096468E+08
        37   14       8.31878309E-02  0.00000000E+00  1.33861590E+09  0.00000000E+00  1.33861590E+09
        37   52       1.16612909E-01  1.98565234E+09  0.00000000E+00  0.00000000E+00  1.98565234E+09
        37   53       1.02273727E-01  2.14804817E+09  0.00000000E+00  0.00000000E+00  2.14804817E+09
        37   15       3.55349369E-03  0.00000000E+00  8.30948566E+07  0.00000000E+00  8.30948566E+07
        25   49       7.80657251E-05  0.00000000E+00  3.96799441E+03  0.00000000E+00  3.96799441E+03
        25   70       7.75612754E-03  0.00000000E+00  0.00000000E+00  1.41010610E+07  1.41010610E+07
        25   71       2.20097243E-03  0.00000000E+00  0.00000000E+00  9.33683215E+06  9.33683215E+06
        25   73       9.27760520E-04  0.00000000E+00  0.00000000E+00  5.31993894E+06  5.31993894E+06
        25   74       3.30421111E-04  0.00000000E+00  0.00000000E+00  2.09460083E+06  2.09460083E+06
        25   50       7.36619587E-02  0.00000000E+00  1.08190517E+09  0.00000000E+00  1.08190517E+09
        25   13       7.36619587E-02  1.08190517E+09  0.00000000E+00  0.00000000E+00  1.08190517E+09
        25   51       1.43329181E-02  0.00000000E+00  2.28096468E+08  0.00000000E+00  2.28096468E+08
        25   14       8.31878309E-02  1.33861590E+09  0.00000000E+00  0.00000000E+00  1.33861590E+09
        25   52       1.16612909E-01  0.00000000E+00  1.98565234E+09  0.00000000E+00  1.98565234E+09
        25   53       1.02273727E-01  0.00000000E+00  2.14804817E+09  0.00000000E+00  2.14804817E+09
        25   15       3.55349369E-03  8.30948566E+07  0.00000000E+00  0.00000000E+00  8.30948566E+07
        49   26       3.42691198E-04  0.00000000E+00  5.55787194E+02  0.00000000E+00  5.55787194E+02
        49   38       3.42691198E-04  5.55787194E+02  0.00000000E+00  0.00000000E+00  5.55787194E+02
        49   96       2.97897815E-05  0.00000000E+00  0.00000000E+00  1.75552179E+05  1.75552179E+05
        49   97       9.41483853E-04  0.00000000E+00  0.00000000E+00  1.20285114E+07  1.20285114E+07
        49   39       3.75568047E-04  7.67203102E+06  0.00000000E+00  0.00000000E+00  7.67203102E+06
        49   27       3.75568047E-04  0.00000000E+00  7.67203102E+06  0.00000000E+00  7.67203102E+06
        49   29       4.83303533E-04  0.00000000E+00  1.13154782E+07  0.00000000E+00  1.13154782E+07
        49   41       4.83303533E-04  1.13154782E+07  0.00000000E+00  0.00000000E+00  1.13154782E+07
        49   98       5.99914308E-05  0.00000000E+00  0.00000000E+00  1.90070861E+06  1.90070861E+06
        26   70       2.32375783E-01  0.00000000E+00  0.00000000E+00  2.72363713E+08  2.72363713E+08
        26   71       6.76054798E-03  0.00000000E+00  0.00000000E+00  2.17564720E+07  2.17564720E+07
        26   73       2.18052428E-02  0.00000000E+00  0.00000000E+00  9.88249982E+07  9.88249982E+07
        26   74       1.24915041E-02  0.00000000E+00  0.00000000E+00  6.33534913E+07  6.33534913E+07
        26   50       3.03374388E-03  0.00000000E+00  3.85931897E+07  0.00000000E+00  3.85931897E+07
        26   13       3.03374388E-03  3.85931897E+07  0.00000000E+00  0.00000000E+00  3.85931897E+07
        26   51       1.01607219E-03  0.00000000E+00  1.40875265E+07  0.00000000E+00  1.40875265E+07
        26   14       1.42321353E-05  1.99680144E+05  0.00000000E+00  0.00000000E+00  1.99680144E+05
        26   52       6.25397943E-03  0.00000000E+00  9.32176002E+07  0.00000000E+00  9.32176002E+07
        26   53       1.47693322E-04  0.00000000E+00  2.75270306E+06  0.00000000E+00  2.75270306E+06
        26   15       2.52844813E-04  5.28058042E+06  0.00000000E+00  0.00000000E+00  5.28058042E+06
        38   82       2.32375783E-01  0.00000000E+00  0.00000000E+00  2.72363713E+08  2.72363713E+08
        38   83       6.76054798E-03  0.00000000E+00  0.00000000E+00  2.17564720E+07  2.17564720E+07
        38   85       2.18052428E-02  0.00000000E+00  0.00000000E+00  9.88249982E+07  9.88249982E+07
        38   86       1.24915041E-02  0.00000000E+00  0.00000000E+00  6.33534913E+07  6.33534913E+07
        38   50       3.03374388E-03  3.85931897E+07  0.00000000E+00  0.00000000E+00  3.85931897E+07
        38   13       3.03374388E-03  0.00000000E+00  3.85931897E+07  0.00000000E+00  3.85931897E+07
        38   51       1.01607219E-03  1.40875265E+07  0.00000000E+00  0.00000000E+00  1.40875265E+07
        38   14       1.42321353E-05  0.00000000E+00  1.99680144E+05  0.00000000E+00  1.99680144E+05
        38   52       6.25397943E-03  9.32176002E+07  0.00000000E+00  0.00000000E+00  9.32176002E+07
        38   53       1.47693322E-04  2.75270306E+06  0.00000000E+00  0.00000000E+00  2.75270306E+06
        38   15       2.52844813E-04  0.00000000E+00  5.28058041E+06  0.00000000E+00  5.28058041E+06
         3   32       6.30606027E-05  0.00000000E+00  1.36006999E+03  0.00000000E+00  1.36006999E+03
         3   20       6.30606027E-05  1.36006999E+03  0.00000000E+00  0.00000000E+00  1.36006999E+03
         3   33       1.22581528E-03  0.00000000E+00  5.33650343E+05  0.00000000E+00  5.33650343E+05
         3   21       1.22581528E-03  5.33650343E+05  0.00000000E+00  0.00000000E+00  5.33650343E+05
         3   57       4.13122446E-01  0.00000000E+00  0.00000000E+00  2.86834377E+09  2.86834377E+09
         3   22       3.39215705E-05  8.12923741E+05  0.00000000E+00  0.00000000E+00  8.12923741E+05
         3   34       3.39215705E-05  0.00000000E+00  8.12923741E+05  0.00000000E+00  8.12923741E+05
        32   44       6.64604494E-05  1.10560832E+03  0.00000000E+00  0.00000000E+00  1.10560832E+03
        32    4       6.64604494E-05  0.00000000E+00  1.10560832E+03  0.00000000E+00  1.10560832E+03
        32    5       5.74859556E-05  0.00000000E+00  4.96845629E+03  0.00000000E+00  4.96845629E+03
        32   77       8.53133873E-03  0.00000000E+00  0.00000000E+00  1.01695232E+07  1.01695232E+07
        32   78       1.83978630E-03  0.00000000E+00  0.00000000E+00  7.54802427E+06  7.54802427E+06
        32   80       8.40541327E-04  0.00000000E+00  0.00000000E+00  5.85559462E+06  5.85559462E+06
        32    6       6.06715793E-03  0.00000000E+00  5.66272199E+07  0.00000000E+00  5.66272199E+07
        32    7       6.68852664E-02  0.00000000E+00  1.01599930E+09  0.00000000E+00  1.01599930E+09
        32   45       6.68852664E-02  1.01599930E+09  0.00000000E+00  0.00000000E+00  1.01599930E+09
        32    8       6.04662244E-02  0.00000000E+00  1.02379454E+09  0.00000000E+00  1.02379454E+09
        32   46       2.16330164E-01  3.79669694E+09  0.00000000E+00  0.00000000E+00  3.79669694E+09
        32   47       1.00248180E-02  2.32269420E+08  0.00000000E+00  0.00000000E+00  2.32269420E+08
        32    9       1.00248180E-02  0.00000000E+00  2.32269420E+08  0.00000000E+00  2.32269420E+08
        32   10       6.77334319E-03  0.00000000E+00  1.58955013E+08  0.00000000E+00  1.58955013E+08
        32   11       8.86902070E-02  0.00000000E+00  3.33737646E+09  0.00000000E+00  3.33737646E+09
        32   12       2.05046035E-02  0.00000000E+00  8.34702121E+08  0.00000000E+00  8.34702121E+08
        20   44       6.64604494E-05  0.00000000E+00  1.10560832E+03  0.00000000E+00  1.10560832E+03
        20    4       6.64604494E-05  1.10560832E+03  0.00000000E+00  0.00000000E+00  1.10560832E+03
        20    5       5.74859556E-05  4.96845629E+03  0.00000000E+00  0.00000000E+00  4.96845629E+03
        20   65       8.53133873E-03  0.00000000E+00  0.00000000E+00  1.01695232E+07  1.01695232E+07
[...]
        21   12            76.630842  2.06356664E-01  1.16829350E-01
        70   95            41.602805  1.55699715E-05  2.66621908E-05
        70   61            41.602805  1.55699715E-05  2.66621908E-05
        70   96            94.175699  1.20456804E-05  2.06817615E-04
        70   62            49.247020  1.03600639E-04  2.04127205E-04
        70   97      ---------------  9.31290785E-05 below threshold
        70   27            79.924823  1.28093557E-02  7.11928211E-03
        70   29            78.282694  3.00265998E-02  1.68421281E-02
        70   98            32.768341  2.83346197E-04  4.21447576E-04
        70   63            54.727891  1.36957321E-02  3.02520302E-02
        82   95            41.602805  1.55699715E-05  2.66621908E-05
        82   61            41.602805  1.55699715E-05  2.66621908E-05
        82   96            94.175699  1.20456804E-05  2.06817615E-04
        82   62            49.247020  1.03600639E-04  2.04127205E-04
        82   97      ---------------  9.31290785E-05 below threshold
        82   39            79.924823  1.28093557E-02  7.11928211E-03
        82   41            78.282694  3.00265998E-02  1.68421281E-02
        82   98            32.768341  2.83346197E-04  4.21447576E-04
        82   63            54.727891  1.36957321E-02  3.02520302E-02
        77   57        130863.998035  1.72048130E-02  1.31370554E-05
        77   90            83.578712  8.27579559E-05  5.03967519E-04
        77   91      --------------- below threshold  3.57974205E-04
        77   34            71.169962  7.16257021E-03  4.18447847E-03
        77   92           499.164864  2.15583742E-02  3.59807050E-03
        65   57        130863.998024  1.72048130E-02  1.31370554E-05
        65   90            83.578712  8.27579559E-05  5.03967519E-04
        65   91      --------------- below threshold  3.57974205E-04
        65   22            71.169962  7.16257021E-03  4.18447847E-03
        65   92           499.164864  2.15583742E-02  3.59807050E-03
        87   99            44.958443  3.19235805E-03  2.20225741E-03
        87   42            20.789003  2.28164987E-01  1.88895497E-01
        75   99            44.958443  3.19235805E-03  2.20225741E-03
        75   30            20.789003  2.28164987E-01  1.88895497E-01
        99   54            55.393787  6.64336908E-02  1.48933716E-01
        71   95            71.872747  1.24113556E-03  7.22124702E-04
        71   61            71.872747  1.24113556E-03  7.22124702E-04
        71   96            26.732198  1.50654665E-03  2.05621926E-03
        71   62            67.360247  6.02028886E-04  3.59720362E-04
        71   97           426.663707  2.75979119E-03  5.24013931E-04
        71   27            20.421527  1.99090102E-01  1.65327667E-01
        71   29            47.873468  5.56802730E-05  3.76539983E-05
        71   98            55.941276  5.46968658E-02  3.50752970E-02
        71   63            71.406289  3.37456976E-03  1.96875493E-03
        83   95            71.872747  1.24113556E-03  7.22124702E-04
        83   61            71.872747  1.24113556E-03  7.22124702E-04
        83   96            26.732198  1.50654665E-03  2.05621926E-03
        83   62            67.360247  6.02028886E-04  3.59720362E-04
        83   97           426.663707  2.75979119E-03  5.24013931E-04
        83   39            20.421527  1.99090102E-01  1.65327667E-01
        83   41            47.873468  5.56802731E-05  3.76539983E-05
        83   98            55.941276  5.46968658E-02  3.50752970E-02
        83   63            71.406289  3.37456976E-03  1.96875493E-03
        84   95            95.648830  6.76739472E-04  1.55530462E-02
        84   61            95.648830  6.76739472E-04  1.55530462E-02
        84   40            25.696557  2.15279496E-01  1.71269206E-01
        72   95            95.648830  6.76739472E-04  1.55530462E-02
        72   61            95.648830  6.76739472E-04  1.55530462E-02
        72   28            25.696557  2.15279496E-01  1.71269206E-01
        73   95            93.493478  2.29725050E-05  3.53068889E-04
        73   61            93.493478  2.29725050E-05  3.53068889E-04
        73   96            48.924067  2.61085733E-04  1.75314668E-04
        73   62            47.918615  6.07291413E-04  1.16604314E-03
        73   97            38.373548  7.58168052E-03  5.47914009E-03
        73   27      ---------------  1.06666831E-04 below threshold
        73   29            23.485323  3.15691676E-02  2.55651172E-02
        73   98            98.755466  2.85334835E-04  1.43560749E-04
        73   63            23.204293  5.96821954E-02  4.84416526E-02
        85   95            93.493478  2.29725050E-05  3.53068889E-04
        85   61            93.493478  2.29725050E-05  3.53068889E-04
        85   96            48.924067  2.61085733E-04  1.75314668E-04
        85   62            47.918615  6.07291413E-04  1.16604314E-03
        85   97            38.373548  7.58168052E-03  5.47914009E-03
        85   39      ---------------  1.06666831E-04 below threshold
        85   41            23.485323  3.15691676E-02  2.55651172E-02
        85   98            98.755466  2.85334835E-04  1.43560749E-04
        85   63            23.204293  5.96821954E-02  4.84416526E-02
        66   57            98.973436  2.77336709E-05  2.70160191E-03
        66   90            53.696650  1.59239330E-03  3.43904554E-03
        66   91            47.017763  1.12361940E-02  7.64274591E-03
        66   22            23.588485  1.98771565E-01  1.60833402E-01
        66   92            45.576274  3.52484799E-02  2.42130664E-02
        78   57            98.973436  2.77336709E-05  2.70160191E-03
        78   90            53.696650  1.59239330E-03  3.43904554E-03
        78   91            47.017763  1.12361940E-02  7.64274591E-03
        78   34            23.588485  1.98771565E-01  1.60833402E-01
        78   92            45.576274  3.52484799E-02  2.42130664E-02
        95   86      --------------- below threshold  5.19471796E-03
        95   74      --------------- below threshold  5.19471796E-03
        95   50            30.401672  7.39461777E-02  1.06247061E-01
        61   86      --------------- below threshold  5.19471796E-03
        61   74      --------------- below threshold  5.19471796E-03
        61   13            30.401672  7.39461777E-02  1.06247061E-01
        86   96            98.266257  1.78588869E-04  1.03007680E-02
        86   62            93.806336  3.15242534E-04  5.08975853E-03
        86   97            47.907877  1.25873166E-02  8.51024087E-03
        86   39           278.660031  3.04164971E-04  8.03266641E-05
        86   41            15.764328  1.31420654E-01  1.13524310E-01
        86   98            14.289337  4.91585135E-03  5.73540232E-03
        86   63            27.657509  1.61266860E-02  1.26327751E-02
        74   96            98.266257  1.78588869E-04  1.03007680E-02
        74   62            93.806336  3.15242534E-04  5.08975853E-03
        74   97            47.907877  1.25873166E-02  8.51024087E-03
        74   27           278.660030  3.04164971E-04  8.03266641E-05
        74   29            15.764328  1.31420654E-01  1.13524310E-01
        74   98            14.289337  4.91585135E-03  5.73540232E-03
        74   63            27.657509  1.61266860E-02  1.26327751E-02
        96   51            37.763685  2.97636490E-02  4.78236044E-02
        96   52           756.290677  5.41705159E-03  6.32618307E-04
        96   53      ---------------  5.31545954E-04 below threshold
        62   14            23.781726  7.57339841E-02  9.93646011E-02
        62   15            94.465091  3.40527243E-05  6.15235512E-04
        79   91           571.133664  8.97956848E-03  1.33797021E-03
        79   35            15.324621  2.29434657E-01  1.98946812E-01
        67   91           571.133664  8.97956848E-03  1.33797021E-03
        67   23            15.324621  2.29434657E-01  1.98946812E-01
        57   80      --------------- below threshold  3.59314453E-03
        57   68      --------------- below threshold  3.59314453E-03
        57    6            14.602520  1.75066052E-01  2.05001427E-01
        57    8           185.563401  3.62998481E-02  1.27116598E-02
        57   10            35.676442  2.25591585E-03  3.50713784E-03
        57   11           136.679314  1.78786809E-03  7.55396853E-04
        57   12            38.140206  4.00859225E-01  2.90182877E-01
        54   42            52.119424  2.47359262E-04  5.16617139E-04
        54   30            52.119424  2.47359262E-04  5.16617139E-04
        90   80      --------------- below threshold  1.82195216E-02
        90   68      --------------- below threshold  1.82195216E-02
        90   46           116.974832  2.17475785E-02  1.00230881E-02
        80   91            31.537983  6.41571600E-04  9.37120501E-04
        80   34            79.690757  2.15768879E-05  1.06241715E-04
        80   92            94.397548  1.13717924E-04  2.02978849E-03
        68   91            31.537983  6.41571600E-04  9.37120501E-04
        68   22            79.690757  2.15768879E-05  1.06241715E-04
        68   92            94.397548  1.13717924E-04  2.02978849E-03
         6   22      --------------- below threshold  4.21178193E-05
         6   34      --------------- below threshold  4.21178193E-05
        97   51            97.013633  7.24485122E-03  2.42597497E-01
        97   52            65.093267  7.09217660E-03  2.03175032E-02
        97   53            89.751239  1.43596278E-03  1.40110870E-02
        50   39            60.029004  1.15963188E-05  2.90118334E-05
        50   27            60.029004  1.15963188E-05  2.90118334E-05
        50   40          3982.164920  1.14420485E-03  2.80293636E-05
        50   28          3982.164920  1.14420485E-03  2.80293636E-05
        50   29            73.682839  9.67569204E-05  3.67657133E-04
        50   41            73.682839  9.67569204E-05  3.67657133E-04
        13   39            60.029004  1.15963188E-05  2.90118334E-05
        13   27            60.029004  1.15963188E-05  2.90118334E-05
        13   40          3982.164920  1.14420485E-03  2.80293636E-05
        13   28          3982.164920  1.14420485E-03  2.80293636E-05
        13   29            73.682839  9.67569204E-05  3.67657133E-04
        13   41            73.682839  9.67569204E-05  3.67657133E-04
        51   39           393.723329  2.70268584E-04  5.47408981E-05
        51   27           393.723329  2.70268584E-04  5.47408981E-05
        51   29            29.489085  5.20398129E-05  4.01885711E-05
        51   41            29.489085  5.20398129E-05  4.01885711E-05
        51   98            47.980028  7.25087974E-03  4.89990430E-03
        14   39            98.362927  2.34251041E-05  1.43091370E-03
        14   27            98.362927  2.34251041E-05  1.43091370E-03
        14   29           104.226660  3.79279661E-04  1.85715059E-04
        14   41           104.226660  3.79279661E-04  1.85715059E-04
        14   63            82.583699  8.07930603E-04  4.63893341E-03
        91   45            85.134738  2.28841642E-02  1.53943902E-01
        91   47            94.279846  1.09124601E-03  1.90772128E-02
        16   42            96.921256  6.79980979E-04  2.20863093E-02
        16   30            96.921256  6.79980979E-04  2.20863093E-02
        17   42            96.804931  5.11187662E-04  1.59992679E-02
        17   30            96.804931  5.11187662E-04  1.59992679E-02
        52   29      --------------- below threshold  3.76899849E-04
        52   41      --------------- below threshold  3.76899849E-04
        42   18            18.090999  6.51347701E-02  7.95208941E-02
        30   18            18.090999  6.51347701E-02  7.95208941E-02
         7   22            70.299237  5.06104834E-05  1.70401289E-04
         7   34            70.299237  5.06104834E-05  1.70401289E-04
         7   35           840.498179  9.72504138E-04  1.03403086E-04
         7   23           840.498179  9.72504138E-04  1.03403086E-04
        45   22            70.299237  5.06104834E-05  1.70401289E-04
        45   34            70.299237  5.06104834E-05  1.70401289E-04
        45   35           840.498179  9.72504138E-04  1.03403086E-04
        45   23           840.498179  9.72504138E-04  1.03403086E-04
         8   22            53.615233  1.36382420E-04  2.94024155E-04
         8   34            53.615233  1.36382420E-04  2.94024155E-04
        53   39            99.959195  2.01030358E-05  4.92656755E-02
        53   27            99.959195  2.01030358E-05  4.92656755E-02
        53   29            98.887594  1.51850626E-05  1.36506423E-03
        53   41            98.887594  1.51850626E-05  1.36506423E-03
        53   98            35.198583  1.00384382E-01  1.54910783E-01
        46   22            83.644063  1.94159977E-03  1.05726248E-03
        46   34            83.644063  1.94159977E-03  1.05726248E-03
        46   92            44.272928  1.82738977E-02  1.26662001E-02
        39   15            99.713523  1.54683550E-04  5.39951653E-02
        27   15            99.713523  1.54683550E-04  5.39951653E-02
        15   29            53.623239  1.57491645E-04  3.39591732E-04
        15   41            53.623239  1.57491645E-04  3.39591732E-04
        15   63            11.746943  5.07227029E-02  5.74741597E-02
        22   47            99.767162  4.27684146E-05  1.83683384E-02
        22    9            99.767162  4.27684146E-05  1.83683384E-02
        22   10            99.797798  2.09946821E-04  1.03830329E-01
        22   11      --------------- below threshold  4.57489765E-05
        22   12            90.517743  5.32996542E-04  2.79762155E-04
        34   47            99.767162  4.27684146E-05  1.83683384E-02
        34    9            99.767162  4.27684145E-05  1.83683384E-02
        34   10            99.797798  2.09946821E-04  1.03830329E-01
        34   11      --------------- below threshold  4.57489765E-05
        34   12            90.517743  5.32996542E-04  2.79762155E-04
        47   35            99.043568  4.99483539E-04  5.22236410E-02
        47   23            99.043568  4.99483539E-04  5.22236410E-02
         9   35            99.043568  4.99483539E-04  5.22236410E-02
         9   23            99.043568  4.99483539E-04  5.22236410E-02
     ---------------------------------------------------------------

 Number of problematic transitions =                   581

--

 Electric-dipole - electric-octupole not included
 Electric-dipole - magnetic-quadrupole not included

++ Second-order contribution to the transition strengths (spin-free states):
   -------------------------------------------------------------------------
     for osc. strength at least  1.00000000E-05

      From   To        Osc. strength
     -------------------------------
         1    7       1.21228517E-05
        43   45       1.21228517E-05
        88   92       1.22427771E-05
        76    3       1.07169705E-05
        64    3       1.07169705E-05
     -------------------------------
--


      ****************************************************************************************************
      *                                                                                                  *
      *                                    Special properties section                                    *
      *                                                                                                  *
      ****************************************************************************************************


++ I/O STATISTICS
 
  I. General I/O information
  - - - - - - - - - - - - - - - - - - - - - - - - - - - - - - - - - - - - - - - - - - -
  Unit  Name          Flsize      Write/Read            MBytes           Write/Read
                      (MBytes)       Calls              In/Out           Time, sec.
  - - - - - - - - - - - - - - - - - - - - - - - - - - - - - - - - - - - - - - - - - - -
   1  RUNFILE           0.99 .     266/  263324 .      2.5/   1904.9 .       0/       0
   2  ANNI              0.00 .       0/       0 .      0.0/      0.0 .       0/       0
   3  ONEINT            1.54 .       0/  126040 .      0.0/ 152831.4 .       0/      19
   4  JOBIPH            1.52 .       0/     651 .      0.0/      1.5 .       0/       0
   5  JOBIPH01          1.22 .       0/     219 .      0.0/      1.3 .       0/       0
   6  JOBIPH02          1.22 .       0/     219 .      0.0/      1.3 .       0/       0
   7  JOBIPH03          1.28 .       0/     315 .      0.0/      1.4 .       0/       0
   8  JOBIPH04          1.32 .       0/     363 .      0.0/      1.4 .       0/       0
   9  JOBIPH05          1.15 .       0/     123 .      0.0/      1.3 .       0/       0
  10  JOBIPH06          1.28 .       0/     315 .      0.0/      1.4 .       0/       0
  11  JOBIPH07          1.32 .       0/     363 .      0.0/      1.4 .       0/       0
  12  JOBIPH08          1.15 .       0/     123 .      0.0/      1.3 .       0/       0
  13  JOBIPH09          1.28 .       0/     315 .      0.0/      1.4 .       0/       0
  14  JOBIPH10          1.32 .       0/     363 .      0.0/      1.4 .       0/       0
  15  JOBIPH11          1.15 .       0/     123 .      0.0/      1.3 .       0/       0
  16  JOBIPH12          1.22 .       0/     219 .      0.0/      1.3 .       0/       0
  17  JOBIPH13          1.32 .       0/     363 .      0.0/      1.4 .       0/       0
  18  JOBIPH14          1.28 .       0/     315 .      0.0/      1.4 .       0/       0
  19  JOBIPH15          1.32 .       0/     363 .      0.0/      1.4 .       0/       0
  20  JOBIPH16          1.15 .       0/     123 .      0.0/      1.3 .       0/       0
  21  JOBIPH17          1.28 .       0/     315 .      0.0/      1.4 .       0/       0
  22  JOBIPH18          1.32 .       0/     363 .      0.0/      1.4 .       0/       0
  23  JOBIPH19          1.15 .       0/     123 .      0.0/      1.3 .       0/       0
  24  JOBIPH20          1.28 .       0/     315 .      0.0/      1.4 .       0/       0
  25  JOBIPH21          1.32 .       0/     363 .      0.0/      1.4 .       0/       0
  26  JOBIPH22          1.15 .       0/     123 .      0.0/      1.3 .       0/       0
  - - - - - - - - - - - - - - - - - - - - - - - - - - - - - - - - - - - - - - - - - - -
   *  TOTAL            31.50 .     266/  395841 .      2.5/ 154767.4 .       0/      19
  - - - - - - - - - - - - - - - - - - - - - - - - - - - - - - - - - - - - - - - - - - -
 
  II. I/O Access Patterns
  - - - - - - - - - - - - - - - - - - - -
  Unit  Name               % of random
                         Write/Read calls
  - - - - - - - - - - - - - - - - - - - -
   1  RUNFILE             28.6/  11.1
   2  ANNI                 0.0/   0.0
   3  ONEINT               0.0/  99.3
   4  JOBIPH               0.0/  51.9
   5  JOBIPH01             0.0/  55.7
   6  JOBIPH02             0.0/  55.7
   7  JOBIPH03             0.0/  54.0
   8  JOBIPH04             0.0/  53.4
   9  JOBIPH05             0.0/  60.2
  10  JOBIPH06             0.0/  54.0
  11  JOBIPH07             0.0/  53.4
  12  JOBIPH08             0.0/  60.2
  13  JOBIPH09             0.0/  54.0
  14  JOBIPH10             0.0/  53.4
  15  JOBIPH11             0.0/  60.2
  16  JOBIPH12             0.0/  55.7
  17  JOBIPH13             0.0/  53.4
  18  JOBIPH14             0.0/  54.0
  19  JOBIPH15             0.0/  53.4
  20  JOBIPH16             0.0/  60.2
  21  JOBIPH17             0.0/  54.0
  22  JOBIPH18             0.0/  53.4
  23  JOBIPH19             0.0/  60.2
  24  JOBIPH20             0.0/  54.0
  25  JOBIPH21             0.0/  53.4
  26  JOBIPH22             0.0/  60.2
  - - - - - - - - - - - - - - - - - - - -
--
--- Stop Module: rassi at Thu Apr 17 10:54:30 2025 /rc=_RC_ALL_IS_WELL_ ---
--- Module rassi spent 41 seconds ---

.##################.
.# Happy landing! #.
.##################.

    Timing: Wall=41.55 User=19.85 System=20.65
