   This run of MOLCAS is using the pymolcas driver

                             OPE
                             OPE          NMOL  CASOP  ENMOLC A   SO
                 OPE        NMOLC        AS  OP EN  MO LC     AS  OP
                OPENM       OL CA        SO  PE NM  OL CA     SOP EN
                OP EN      MO   LC       AS  OP ENMOL  CASO   PENMOL
                OP  EN     MO   LC       AS  OP EN     MO     LC ASO
               OP   E  NMOL  C  AS       OP  EN MO     LC     AS  OP
               OP  E   NMO   LC AS        OPEN  MO     LCASOP EN   M
               O  PEN   MO  LCA  SO
            OPE   NMO   L   CAS    OP
        OPENMOL  CASOP     ENMOL   CASOPE
     OPENMOLCA   SOPENMOLCASOPEN   MOLCASOPE
    OPENMOLCAS   OP           EN   MOL    CAS
    OPENMOLCAS       OP  ENM        O     LCA
    OPENMOLCAS    OPEN  MOLCASO     P  E  NMO
    OPENMOLCAS     OP               E  N  MOL
    OPENMOLCA   SO           PENM   O  L  CAS    OPEN    MO    LCAS
    OPENMOLCA   SOP           ENM   O  L  CAS   OP  EN  MOLC  AS   O
    OPENMOLCA   SOPE           NM      O  LCA   S      OP  EN MO
    OPENMOLC                AS         O  PEN   M      OL  CA  SOPE
    OPENMO        LCASOPE  NMOL        C  ASO   P      ENMOLC     AS
    OPE     NMO      LCA  SO     P     E   NM   OL  CA SO  PE N   MO
          OPENMOLCA            SOPE   NMO        LCAS  O    P  ENMO
     OPENMOLCASOPENMOLCASOPENMOLCASOPENMOLCA
        OPENMOLCASOPENMOLCASOPENMOLCASOPE
            OPENMOLCASOPENMOLCASOPENM
               OPENMOLCASOPENMOLCA        version: 25.02
                   OPENMOLCASO
                       OPE                tag: 92-gf4b470f0a

 OpenMolcas is free software; you can redistribute it and/or modify it
 under the terms of the GNU Lesser General Public License version 2.1.
 OpenMolcas is distributed in the hope that it will be useful, but it
 is provided "as is" and without any express or implied warranties.
 For more details see the full text of the license in the file
 LICENSE or in <http://www.gnu.org/licenses/>.

                 Copyright (C) The OpenMolcas Authors
           For the author list and the recommended citation,
                   consult the file CONTRIBUTORS.md

           *************************************************
           * pymolcas version py2.29                       *
           *   build 2ba4516c4d154a59cba941070ba63e2c      *
           *   (after the EMIL interpreter by V. Veryazov) *
           *************************************************

configuration info
------------------
Host name: iftia91.univ.gda.pl (Linux)
C Compiler ID: GNU
C flags: -std=gnu99
Fortran Compiler ID: GNU
Fortran flags: -cpp -fdefault-integer-8 -fmax-stack-var-size=1048576
Definitions: _MOLCAS_;_I8_;_LINUX_
Parallel: OFF (GA=OFF)


   --------------------------------------------------------------------
  |
  |           Project: O2
  |    Submitted from: /scratch/tecumseh/WorkSpace/O2.0.4750
  |      Scratch area: /scratch/tecumseh/WorkSpace/O2.0.4750
  |   Save outputs to: WORKDIR
  |            Molcas: /home/tecumseh/program/OpenMolcas/build
  |
  | Scratch area is NOT empty
  |
  |    MOLCAS_DRIVER = /home/tecumseh/program/OpenMolcas/build/pymolcas
  |    MOLCAS_NPROCS = 1
  |    MOLCAS_SOURCE = /home/tecumseh/program/OpenMolcas/OpenMolcas
  | MOLCAS_STRUCTURE = 0
  |
   --------------------------------------------------------------------

++ ---------   Input file   ---------

>>> COPY $dir/vectors/$Project.$R.1Ag-12S.JobIph $WorkDir/JOBIPH

>>> COPY $dir/vectors/$Project.$R.3Ag-3S.JobIph $WorkDir/JOBIPH01

>>> COPY $dir/vectors/$Project.$R.5Ag-3S.JobIph $WorkDir/JOBIPH02

>>> COPY $dir/vectors/$Project.$R.1B3u-5S.JobIph $WorkDir/JOBIPH03

>>> COPY $dir/vectors/$Project.$R.3B3u-6S.JobIph $WorkDir/JOBIPH04

>>> COPY $dir/vectors/$Project.$R.5B3u-1S.JobIph $WorkDir/JOBIPH05

>>> COPY $dir/vectors/$Project.$R.1B2u-5S.JobIph $WorkDir/JOBIPH06

>>> COPY $dir/vectors/$Project.$R.3B2u-6S.JobIph $WorkDir/JOBIPH07

>>> COPY $dir/vectors/$Project.$R.5B2u-1S.JobIph $WorkDir/JOBIPH08

>>> COPY $dir/vectors/$Project.$R.1B1g-5S.JobIph $WorkDir/JOBIPH09

>>> COPY $dir/vectors/$Project.$R.3B1g-6S.JobIph $WorkDir/JOBIPH10

>>> COPY $dir/vectors/$Project.$R.5B1g-1S.JobIph $WorkDir/JOBIPH11

>>> COPY $dir/vectors/$Project.$R.1B1u-3S.JobIph $WorkDir/JOBIPH12

>>> COPY $dir/vectors/$Project.$R.3B1u-6S.JobIph $WorkDir/JOBIPH13

>>> COPY $dir/vectors/$Project.$R.1B2g-5S.JobIph $WorkDir/JOBIPH14

>>> COPY $dir/vectors/$Project.$R.3B2g-6S.JobIph $WorkDir/JOBIPH15

>>> COPY $dir/vectors/$Project.$R.5B2g-1S.JobIph $WorkDir/JOBIPH16

>>> COPY $dir/vectors/$Project.$R.1B3g-5S.JobIph $WorkDir/JOBIPH17

>>> COPY $dir/vectors/$Project.$R.3B3g-6S.JobIph $WorkDir/JOBIPH18

>>> COPY $dir/vectors/$Project.$R.5B3g-1S.JobIph $WorkDir/JOBIPH19

>>> COPY $dir/vectors/$Project.$R.1Au-5S.JobIph $WorkDir/JOBIPH20

>>> COPY $dir/vectors/$Project.$R.3Au-6S.JobIph $WorkDir/JOBIPH21

>>> COPY $dir/vectors/$Project.$R.5Au-1S.JobIph $WorkDir/JOBIPH22

&RASSI

OMEGa
NROF=23 12 3 3 5 6 1 5 6 1 5 6 1 3 6 5 6 1 5 6 1 5 6 1
1 2 3 4 5 6 7 8 9 10 11 12
1 2 3
1 2 3
1 2 3 4 5
1 2 3 4 5 6
1
1 2 3 4 5
1 2 3 4 5 6
1
1 2 3 4 5
1 2 3 4 5 6
1
1 2 3
1 2 3 4 5 6
1 2 3 4 5
1 2 3 4 5 6
1
1 2 3 4 5
1 2 3 4 5 6
1
1 2 3 4 5
1 2 3 4 5 6
1
EJOB

-- ----------------------------------

>>> COPY /home/tecumseh/project/molecule/O2/OpenMolcas/vectors/O2.0.4750.1Ag-12S.JobIph /scratch/tecumseh/WorkSpace/O2.0.4750/JOBIPH

>>> COPY /home/tecumseh/project/molecule/O2/OpenMolcas/vectors/O2.0.4750.3Ag-3S.JobIph /scratch/tecumseh/WorkSpace/O2.0.4750/JOBIPH01

>>> COPY /home/tecumseh/project/molecule/O2/OpenMolcas/vectors/O2.0.4750.5Ag-3S.JobIph /scratch/tecumseh/WorkSpace/O2.0.4750/JOBIPH02

>>> COPY /home/tecumseh/project/molecule/O2/OpenMolcas/vectors/O2.0.4750.1B3u-5S.JobIph /scratch/tecumseh/WorkSpace/O2.0.4750/JOBIPH03

>>> COPY /home/tecumseh/project/molecule/O2/OpenMolcas/vectors/O2.0.4750.3B3u-6S.JobIph /scratch/tecumseh/WorkSpace/O2.0.4750/JOBIPH04

>>> COPY /home/tecumseh/project/molecule/O2/OpenMolcas/vectors/O2.0.4750.5B3u-1S.JobIph /scratch/tecumseh/WorkSpace/O2.0.4750/JOBIPH05

>>> COPY /home/tecumseh/project/molecule/O2/OpenMolcas/vectors/O2.0.4750.1B2u-5S.JobIph /scratch/tecumseh/WorkSpace/O2.0.4750/JOBIPH06

>>> COPY /home/tecumseh/project/molecule/O2/OpenMolcas/vectors/O2.0.4750.3B2u-6S.JobIph /scratch/tecumseh/WorkSpace/O2.0.4750/JOBIPH07

>>> COPY /home/tecumseh/project/molecule/O2/OpenMolcas/vectors/O2.0.4750.5B2u-1S.JobIph /scratch/tecumseh/WorkSpace/O2.0.4750/JOBIPH08

>>> COPY /home/tecumseh/project/molecule/O2/OpenMolcas/vectors/O2.0.4750.1B1g-5S.JobIph /scratch/tecumseh/WorkSpace/O2.0.4750/JOBIPH09

>>> COPY /home/tecumseh/project/molecule/O2/OpenMolcas/vectors/O2.0.4750.3B1g-6S.JobIph /scratch/tecumseh/WorkSpace/O2.0.4750/JOBIPH10

>>> COPY /home/tecumseh/project/molecule/O2/OpenMolcas/vectors/O2.0.4750.5B1g-1S.JobIph /scratch/tecumseh/WorkSpace/O2.0.4750/JOBIPH11

>>> COPY /home/tecumseh/project/molecule/O2/OpenMolcas/vectors/O2.0.4750.1B1u-3S.JobIph /scratch/tecumseh/WorkSpace/O2.0.4750/JOBIPH12

>>> COPY /home/tecumseh/project/molecule/O2/OpenMolcas/vectors/O2.0.4750.3B1u-6S.JobIph /scratch/tecumseh/WorkSpace/O2.0.4750/JOBIPH13

>>> COPY /home/tecumseh/project/molecule/O2/OpenMolcas/vectors/O2.0.4750.1B2g-5S.JobIph /scratch/tecumseh/WorkSpace/O2.0.4750/JOBIPH14

>>> COPY /home/tecumseh/project/molecule/O2/OpenMolcas/vectors/O2.0.4750.3B2g-6S.JobIph /scratch/tecumseh/WorkSpace/O2.0.4750/JOBIPH15

>>> COPY /home/tecumseh/project/molecule/O2/OpenMolcas/vectors/O2.0.4750.5B2g-1S.JobIph /scratch/tecumseh/WorkSpace/O2.0.4750/JOBIPH16

>>> COPY /home/tecumseh/project/molecule/O2/OpenMolcas/vectors/O2.0.4750.1B3g-5S.JobIph /scratch/tecumseh/WorkSpace/O2.0.4750/JOBIPH17

>>> COPY /home/tecumseh/project/molecule/O2/OpenMolcas/vectors/O2.0.4750.3B3g-6S.JobIph /scratch/tecumseh/WorkSpace/O2.0.4750/JOBIPH18

>>> COPY /home/tecumseh/project/molecule/O2/OpenMolcas/vectors/O2.0.4750.5B3g-1S.JobIph /scratch/tecumseh/WorkSpace/O2.0.4750/JOBIPH19

>>> COPY /home/tecumseh/project/molecule/O2/OpenMolcas/vectors/O2.0.4750.1Au-5S.JobIph /scratch/tecumseh/WorkSpace/O2.0.4750/JOBIPH20

>>> COPY /home/tecumseh/project/molecule/O2/OpenMolcas/vectors/O2.0.4750.3Au-6S.JobIph /scratch/tecumseh/WorkSpace/O2.0.4750/JOBIPH21

>>> COPY /home/tecumseh/project/molecule/O2/OpenMolcas/vectors/O2.0.4750.5Au-1S.JobIph /scratch/tecumseh/WorkSpace/O2.0.4750/JOBIPH22

--- Start Module: rassi at Thu Apr 17 10:54:40 2025 ---

()()()()()()()()()()()()()()()()()()()()()()()()()()()()()()()()()()()()()()()()()()()()()()()()()()

                                               &RASSI

                                   only a single process is used
                       available to each process: 2.0 GB of memory, 1 thread?
                                            pid: 298159
()()()()()()()()()()()()()()()()()()()()()()()()()()()()()()()()()()()()()()()()()()()()()()()()()()


      ********************************************************************************
      *                                                                              *
      *                             General data section                             *
      *                                                                              *
      ********************************************************************************

   Specific data for JOBIPH file JOBIPH
   -------------------------------------

   Header from SEWARD:
                            O2, D2h symmetry, aug-cc-pVTZ                      
        Integrals generated by Gateway/Seward, Wed Apr 16 15:36:20 2025        

   CASSCF title (first line only):
       O2, 1Ag 12S                                                             

  STATE IRREP:                1
  SPIN MULTIPLICITY:          1
  ACTIVE ELECTRONS:          12
  MAX RAS1 HOLES:             0
  MAX RAS3 ELECTRONS:         0
  NR OF CONFIG:              60

   Specific data for JOBIPH file JOBIPH01
   -------------------------------------

   Header from SEWARD:
                            O2, D2h symmetry, aug-cc-pVTZ                      
        Integrals generated by Gateway/Seward, Wed Apr 16 15:36:20 2025        

   CASSCF title (first line only):
       O2, 3Ag  3S                                                             

  STATE IRREP:                1
  SPIN MULTIPLICITY:          3
  ACTIVE ELECTRONS:          12
  MAX RAS1 HOLES:             0
  MAX RAS3 ELECTRONS:         0
  NR OF CONFIG:              42

   Specific data for JOBIPH file JOBIPH02
   -------------------------------------

   Header from SEWARD:
                            O2, D2h symmetry, aug-cc-pVTZ                      
        Integrals generated by Gateway/Seward, Wed Apr 16 15:36:20 2025        

   CASSCF title (first line only):
       O2, 5Ag  3S                                                             

  STATE IRREP:                1
  SPIN MULTIPLICITY:          5
  ACTIVE ELECTRONS:          12
  MAX RAS1 HOLES:             0
  MAX RAS3 ELECTRONS:         0
  NR OF CONFIG:              10

   Specific data for JOBIPH file JOBIPH03
   -------------------------------------

   Header from SEWARD:
                            O2, D2h symmetry, aug-cc-pVTZ                      
        Integrals generated by Gateway/Seward, Thu Apr 17 10:54:30 2025        

   CASSCF title (first line only):
       O2, 1B3u 5S                                                             

  STATE IRREP:                2
  SPIN MULTIPLICITY:          1
  ACTIVE ELECTRONS:          12
  MAX RAS1 HOLES:             0
  MAX RAS3 ELECTRONS:         0
  NR OF CONFIG:              40

   Specific data for JOBIPH file JOBIPH04
   -------------------------------------

   Header from SEWARD:
                            O2, D2h symmetry, aug-cc-pVTZ                      
        Integrals generated by Gateway/Seward, Wed Apr 16 15:36:20 2025        

   CASSCF title (first line only):
       O2, 3B3u 6S                                                             

  STATE IRREP:                2
  SPIN MULTIPLICITY:          3
  ACTIVE ELECTRONS:          12
  MAX RAS1 HOLES:             0
  MAX RAS3 ELECTRONS:         0
  NR OF CONFIG:              48

   Specific data for JOBIPH file JOBIPH05
   -------------------------------------

   Header from SEWARD:
                            O2, D2h symmetry, aug-cc-pVTZ                      
        Integrals generated by Gateway/Seward, Wed Apr 16 15:36:20 2025        

   CASSCF title (first line only):
       O2, 5B3u 1S                                                             

  STATE IRREP:                2
  SPIN MULTIPLICITY:          5
  ACTIVE ELECTRONS:          12
  MAX RAS1 HOLES:             0
  MAX RAS3 ELECTRONS:         0
  NR OF CONFIG:               8

   Specific data for JOBIPH file JOBIPH06
   -------------------------------------

   Header from SEWARD:
                            O2, D2h symmetry, aug-cc-pVTZ                      
        Integrals generated by Gateway/Seward, Thu Apr 17 10:54:30 2025        

   CASSCF title (first line only):
       O2, 1B2u 5S                                                             

  STATE IRREP:                3
  SPIN MULTIPLICITY:          1
  ACTIVE ELECTRONS:          12
  MAX RAS1 HOLES:             0
  MAX RAS3 ELECTRONS:         0
  NR OF CONFIG:              40

   Specific data for JOBIPH file JOBIPH07
   -------------------------------------

   Header from SEWARD:
                            O2, D2h symmetry, aug-cc-pVTZ                      
        Integrals generated by Gateway/Seward, Wed Apr 16 15:36:20 2025        

   CASSCF title (first line only):
       O2, 3B2u 6S                                                             

  STATE IRREP:                3
  SPIN MULTIPLICITY:          3
  ACTIVE ELECTRONS:          12
  MAX RAS1 HOLES:             0
  MAX RAS3 ELECTRONS:         0
  NR OF CONFIG:              48

   Specific data for JOBIPH file JOBIPH08
   -------------------------------------

   Header from SEWARD:
                            O2, D2h symmetry, aug-cc-pVTZ                      
        Integrals generated by Gateway/Seward, Wed Apr 16 15:36:20 2025        

   CASSCF title (first line only):
       O2, 5B2u 1S                                                             

  STATE IRREP:                3
  SPIN MULTIPLICITY:          5
  ACTIVE ELECTRONS:          12
  MAX RAS1 HOLES:             0
  MAX RAS3 ELECTRONS:         0
  NR OF CONFIG:               8

   Specific data for JOBIPH file JOBIPH09
   -------------------------------------

   Header from SEWARD:
                            O2, D2h symmetry, aug-cc-pVTZ                      
        Integrals generated by Gateway/Seward, Wed Apr 16 15:36:20 2025        

   CASSCF title (first line only):
       O2, 1B1g 5S                                                             

  STATE IRREP:                4
  SPIN MULTIPLICITY:          1
  ACTIVE ELECTRONS:          12
  MAX RAS1 HOLES:             0
  MAX RAS3 ELECTRONS:         0
  NR OF CONFIG:              36

   Specific data for JOBIPH file JOBIPH10
   -------------------------------------

   Header from SEWARD:
                            O2, D2h symmetry, aug-cc-pVTZ                      
        Integrals generated by Gateway/Seward, Wed Apr 16 15:36:20 2025        

   CASSCF title (first line only):
       O2, 3B1g 6S                                                             

  STATE IRREP:                4
  SPIN MULTIPLICITY:          3
  ACTIVE ELECTRONS:          12
  MAX RAS1 HOLES:             0
  MAX RAS3 ELECTRONS:         0
  NR OF CONFIG:              48

   Specific data for JOBIPH file JOBIPH11
   -------------------------------------

   Header from SEWARD:
                            O2, D2h symmetry, aug-cc-pVTZ                      
        Integrals generated by Gateway/Seward, Wed Apr 16 15:36:20 2025        

   CASSCF title (first line only):
       O2, 5B1g 1S                                                             

  STATE IRREP:                4
  SPIN MULTIPLICITY:          5
  ACTIVE ELECTRONS:          12
  MAX RAS1 HOLES:             0
  MAX RAS3 ELECTRONS:         0
  NR OF CONFIG:              12

   Specific data for JOBIPH file JOBIPH12
   -------------------------------------

   Header from SEWARD:
                            O2, D2h symmetry, aug-cc-pVTZ                      
        Integrals generated by Gateway/Seward, Thu Apr 17 10:54:30 2025        

   CASSCF title (first line only):
       O2, 1B1u 3S                                                             

  STATE IRREP:                5
  SPIN MULTIPLICITY:          1
  ACTIVE ELECTRONS:          12
  MAX RAS1 HOLES:             0
  MAX RAS3 ELECTRONS:         0
  NR OF CONFIG:              44

   Specific data for JOBIPH file JOBIPH13
   -------------------------------------

   Header from SEWARD:
                            O2, D2h symmetry, aug-cc-pVTZ                      
        Integrals generated by Gateway/Seward, Wed Apr 16 15:36:20 2025        

   CASSCF title (first line only):
       O2, 3B1u 6S                                                             

  STATE IRREP:                5
  SPIN MULTIPLICITY:          3
  ACTIVE ELECTRONS:          12
  MAX RAS1 HOLES:             0
  MAX RAS3 ELECTRONS:         0
  NR OF CONFIG:              48

   Specific data for JOBIPH file JOBIPH14
   -------------------------------------

   Header from SEWARD:
                            O2, D2h symmetry, aug-cc-pVTZ                      
        Integrals generated by Gateway/Seward, Wed Apr 16 15:36:20 2025        

   CASSCF title (first line only):
       O2, 1B2g 5S                                                             

  STATE IRREP:                6
  SPIN MULTIPLICITY:          1
  ACTIVE ELECTRONS:          12
  MAX RAS1 HOLES:             0
  MAX RAS3 ELECTRONS:         0
  NR OF CONFIG:              40

   Specific data for JOBIPH file JOBIPH15
   -------------------------------------

   Header from SEWARD:
                            O2, D2h symmetry, aug-cc-pVTZ                      
        Integrals generated by Gateway/Seward, Wed Apr 16 15:36:20 2025        

   CASSCF title (first line only):
       O2, 3B2g 6S                                                             

  STATE IRREP:                6
  SPIN MULTIPLICITY:          3
  ACTIVE ELECTRONS:          12
  MAX RAS1 HOLES:             0
  MAX RAS3 ELECTRONS:         0
  NR OF CONFIG:              48

   Specific data for JOBIPH file JOBIPH16
   -------------------------------------

   Header from SEWARD:
                            O2, D2h symmetry, aug-cc-pVTZ                      
        Integrals generated by Gateway/Seward, Wed Apr 16 15:36:20 2025        

   CASSCF title (first line only):
       O2, 5B2g 1S                                                             

  STATE IRREP:                6
  SPIN MULTIPLICITY:          5
  ACTIVE ELECTRONS:          12
  MAX RAS1 HOLES:             0
  MAX RAS3 ELECTRONS:         0
  NR OF CONFIG:               8

   Specific data for JOBIPH file JOBIPH17
   -------------------------------------

   Header from SEWARD:
                            O2, D2h symmetry, aug-cc-pVTZ                      
        Integrals generated by Gateway/Seward, Wed Apr 16 15:36:20 2025        

   CASSCF title (first line only):
       O2, 1B3g 5S                                                             

  STATE IRREP:                7
  SPIN MULTIPLICITY:          1
  ACTIVE ELECTRONS:          12
  MAX RAS1 HOLES:             0
  MAX RAS3 ELECTRONS:         0
  NR OF CONFIG:              40

   Specific data for JOBIPH file JOBIPH18
   -------------------------------------

   Header from SEWARD:
                            O2, D2h symmetry, aug-cc-pVTZ                      
        Integrals generated by Gateway/Seward, Wed Apr 16 15:36:20 2025        

   CASSCF title (first line only):
       O2, 3B3g 6S                                                             

  STATE IRREP:                7
  SPIN MULTIPLICITY:          3
  ACTIVE ELECTRONS:          12
  MAX RAS1 HOLES:             0
  MAX RAS3 ELECTRONS:         0
  NR OF CONFIG:              48

   Specific data for JOBIPH file JOBIPH19
   -------------------------------------

   Header from SEWARD:
                            O2, D2h symmetry, aug-cc-pVTZ                      
        Integrals generated by Gateway/Seward, Wed Apr 16 15:36:20 2025        

   CASSCF title (first line only):
       O2, 5B3g 1S                                                             

  STATE IRREP:                7
  SPIN MULTIPLICITY:          5
  ACTIVE ELECTRONS:          12
  MAX RAS1 HOLES:             0
  MAX RAS3 ELECTRONS:         0
  NR OF CONFIG:               8

   Specific data for JOBIPH file JOBIPH20
   -------------------------------------

   Header from SEWARD:
                            O2, D2h symmetry, aug-cc-pVTZ                      
        Integrals generated by Gateway/Seward, Thu Apr 17 10:54:30 2025        

   CASSCF title (first line only):
       O2, 1Au 5S                                                              

  STATE IRREP:                8
  SPIN MULTIPLICITY:          1
  ACTIVE ELECTRONS:          12
  MAX RAS1 HOLES:             0
  MAX RAS3 ELECTRONS:         0
  NR OF CONFIG:              36

   Specific data for JOBIPH file JOBIPH21
   -------------------------------------

   Header from SEWARD:
                            O2, D2h symmetry, aug-cc-pVTZ                      
        Integrals generated by Gateway/Seward, Wed Apr 16 15:36:20 2025        

   CASSCF title (first line only):
       O2, 3Au 6S                                                              

  STATE IRREP:                8
  SPIN MULTIPLICITY:          3
  ACTIVE ELECTRONS:          12
  MAX RAS1 HOLES:             0
  MAX RAS3 ELECTRONS:         0
  NR OF CONFIG:              48

   Specific data for JOBIPH file JOBIPH22
   -------------------------------------

   Header from SEWARD:
                            O2, D2h symmetry, aug-cc-pVTZ                      
        Integrals generated by Gateway/Seward, Wed Apr 16 15:36:20 2025        

   CASSCF title (first line only):
       O2, 5Au 1S                                                              

  STATE IRREP:                8
  SPIN MULTIPLICITY:          5
  ACTIVE ELECTRONS:          12
  MAX RAS1 HOLES:             0
  MAX RAS3 ELECTRONS:         0
  NR OF CONFIG:              12
 ###############################################################################
 ###############################################################################
 ###                                                                         ###
 ###                                                                         ###
 ###    WARNING: EJOB used when HEFF is available, possible                  ###
 ###    extra interaction between states is ignored!                         ###
 ###                                                                         ###
 ###                                                                         ###
 ###############################################################################
 ###############################################################################

   The following data are common to all the states:
   ------------------------------------------------
   (note: frozen counts as inactive, deleted as secondary)

      Nr of irreps: 8

                 Total     No./Irrep 
      Irrep                  1   2   3   4   5   6   7   8
                            ag b3u b2u b1g b1u b2g b3g  au

      INACTIVE       2       1   0   0   0   1   0   0   0
      ACTIVE         8       2   1   1   0   2   1   1   0
      SECONDARY     82      16  10  10   5  16  10  10   5
      BASIS         92      19  11  11   5  19  11  11   5

      RAS1           0       0   0   0   0   0   0   0   0
      RAS2           8       2   1   1   0   2   1   1   0
      RAS3           0       0   0   0   0   0   0   0   0

        MATRIX ELEMENTS WILL BE COMPUTED FOR THE FOLLOWING ONE-ELECTRON OPERATORS, UNLESS ZERO BY SYMMETRY.
   (Herm=Hermitian, Anti=Antihermitian, Sing=Singlet operator, Trip=Triplet operator)
     MLTPL  0   1 (HERMSING)     MLTPL  1   1 (HERMSING)     MLTPL  1   2 (HERMSING)
     MLTPL  1   3 (HERMSING)     MLTPL  2   1 (HERMSING)     MLTPL  2   2 (HERMSING)
     MLTPL  2   3 (HERMSING)     MLTPL  2   4 (HERMSING)     MLTPL  2   5 (HERMSING)
     MLTPL  2   6 (HERMSING)     VELOCITY   1 (ANTISING)     VELOCITY   2 (ANTISING)
     VELOCITY   3 (ANTISING)     ANGMOM     1 (ANTISING)     ANGMOM     2 (ANTISING)
     ANGMOM     3 (ANTISING)     MLTPV  2   1 (ANTISING)     MLTPV  2   2 (ANTISING)
     MLTPV  2   3 (ANTISING)     MLTPV  2   4 (ANTISING)     MLTPV  2   5 (ANTISING)
     MLTPV  2   6 (ANTISING)

       EIGENSTATES OF A SPIN-FREE HAMILTONIAN WILL BE COMPUTED BASED ON:

  a Hamiltonian matrix assumed to be diagonal with energies read from the wavefunction file(s).

  Nr of states:                   99

   State:        1   2   3   4   5   6   7   8   9  10  11  12  13  14  15  16  17  18  19  20
  JobIph:        1   1   1   1   1   1   1   1   1   1   1   1   2   2   2   3   3   3   4   4
 Root nr:        1   2   3   4   5   6   7   8   9  10  11  12   1   2   3   1   2   3   1   2

   State:       21  22  23  24  25  26  27  28  29  30  31  32  33  34  35  36  37  38  39  40
  JobIph:        4   4   4   5   5   5   5   5   5   6   7   7   7   7   7   8   8   8   8   8
 Root nr:        3   4   5   1   2   3   4   5   6   1   1   2   3   4   5   1   2   3   4   5

   State:       41  42  43  44  45  46  47  48  49  50  51  52  53  54  55  56  57  58  59  60
  JobIph:        8   9  10  10  10  10  10  11  11  11  11  11  11  12  13  13  13  14  14  14
 Root nr:        6   1   1   2   3   4   5   1   2   3   4   5   6   1   1   2   3   1   2   3

   State:       61  62  63  64  65  66  67  68  69  70  71  72  73  74  75  76  77  78  79  80
  JobIph:       14  14  14  15  15  15  15  15  16  16  16  16  16  16  17  18  18  18  18  18
 Root nr:        4   5   6   1   2   3   4   5   1   2   3   4   5   6   1   1   2   3   4   5

   State:       81  82  83  84  85  86  87  88  89  90  91  92  93  94  95  96  97  98  99
  JobIph:       19  19  19  19  19  19  20  21  21  21  21  21  22  22  22  22  22  22  23
 Root nr:        1   2   3   4   5   6   1   1   2   3   4   5   1   2   3   4   5   6   1

  HAMILTONIAN MATRIX FOR THE ORIGINAL STATES:

  Diagonal, with energies
   -149.52712764   -149.50084058   -148.45308591   -148.38705702   -148.35872751
   -147.92024834   -147.64626774   -147.61040062   -147.39826908   -147.39774681
   -147.24076376   -147.08946219   -147.73442735   -147.70190224   -147.50034384
   -147.61045820   -147.60298989   -146.64739677   -148.76687855   -148.36312013
   -148.33138731   -147.40960946   -147.35411167   -148.87839943   -148.45269909
   -148.43406749   -147.50119613   -147.46362932   -147.44486518   -147.57135810
   -148.76687855   -148.36312013   -148.33138731   -147.40960946   -147.35411167
   -148.87839943   -148.45269909   -148.43406749   -147.50119613   -147.46362932
   -147.44486518   -147.57135810   -149.52712764   -148.38705702   -147.64626774
   -147.57943911   -147.39826908   -149.56884875   -148.45054437   -147.73442735
   -147.71137510   -147.66166355   -147.53727232   -147.88272456   -148.83266361
   -148.77954325   -148.00842006   -149.10516597   -149.09731019   -148.38714340
   -147.94150985   -147.90975810   -147.31408126   -148.97476844   -148.25273403
   -147.95091231   -147.89477350   -147.84057963   -149.02575735   -148.29097070
   -148.02504336   -148.01167333   -147.97931482   -147.94152484   -148.10620377
   -148.97476844   -148.25273403   -147.95091231   -147.89477350   -147.84057963
   -149.02575735   -148.29097070   -148.02504336   -148.01167333   -147.97931482
   -147.94152484   -148.10620377   -149.11678344   -148.83266361   -147.84685644
   -147.68472066   -147.26489717   -149.10516597   -148.92065123   -147.94150985
   -147.91465976   -147.72395224   -147.33489185   -148.05038943

      OVERLAP MATRIX FOR THE ORIGINAL STATES:

  Diagonal, with elements
      1.00000000      1.00000000      1.00000000      1.00000000      1.00000000
      1.00000000      1.00000000      1.00000000      1.00000000      1.00000000
      1.00000000      1.00000000      1.00000000      1.00000000      1.00000000
      1.00000000      1.00000000      1.00000000      1.00000000      1.00000000
      1.00000000      1.00000000      1.00000000      1.00000000      1.00000000
      1.00000000      1.00000000      1.00000000      1.00000000      1.00000000
      1.00000000      1.00000000      1.00000000      1.00000000      1.00000000
      1.00000000      1.00000000      1.00000000      1.00000000      1.00000000
      1.00000000      1.00000000      1.00000000      1.00000000      1.00000000
      1.00000000      1.00000000      1.00000000      1.00000000      1.00000000
      1.00000000      1.00000000      1.00000000      1.00000000      1.00000000
      1.00000000      1.00000000      1.00000000      1.00000000      1.00000000
      1.00000000      1.00000000      1.00000000      1.00000000      1.00000000
      1.00000000      1.00000000      1.00000000      1.00000000      1.00000000
      1.00000000      1.00000000      1.00000000      1.00000000      1.00000000
      1.00000000      1.00000000      1.00000000      1.00000000      1.00000000
      1.00000000      1.00000000      1.00000000      1.00000000      1.00000000
      1.00000000      1.00000000      1.00000000      1.00000000      1.00000000
      1.00000000      1.00000000      1.00000000      1.00000000      1.00000000
      1.00000000      1.00000000      1.00000000      1.00000000

::    RASSI State    1     Total energy:    -149.52712763916222
::    RASSI State    2     Total energy:    -149.50084058291677
::    RASSI State    3     Total energy:    -148.45308591182726
::    RASSI State    4     Total energy:    -148.38705701979202
::    RASSI State    5     Total energy:    -148.35872750743007
::    RASSI State    6     Total energy:    -147.92024833637478
::    RASSI State    7     Total energy:    -147.64626774467314
::    RASSI State    8     Total energy:    -147.61040061681734
::    RASSI State    9     Total energy:    -147.39826908426517
::    RASSI State   10     Total energy:    -147.39774681085635
::    RASSI State   11     Total energy:    -147.24076375653073
::    RASSI State   12     Total energy:    -147.08946218985463
::    RASSI State   13     Total energy:    -147.73442734781304
::    RASSI State   14     Total energy:    -147.70190223748219
::    RASSI State   15     Total energy:    -147.50034384435330
::    RASSI State   16     Total energy:    -147.61045819797340
::    RASSI State   17     Total energy:    -147.60298988530167
::    RASSI State   18     Total energy:    -146.64739677300486
::    RASSI State   19     Total energy:    -148.76687854650115
::    RASSI State   20     Total energy:    -148.36312012733791
::    RASSI State   21     Total energy:    -148.33138730571446
::    RASSI State   22     Total energy:    -147.40960945862923
::    RASSI State   23     Total energy:    -147.35411167205882
::    RASSI State   24     Total energy:    -148.87839942907357
::    RASSI State   25     Total energy:    -148.45269908588239
::    RASSI State   26     Total energy:    -148.43406748686667
::    RASSI State   27     Total energy:    -147.50119612976005
::    RASSI State   28     Total energy:    -147.46362932095434
::    RASSI State   29     Total energy:    -147.44486517857979
::    RASSI State   30     Total energy:    -147.57135809817527
::    RASSI State   31     Total energy:    -148.76687854650118
::    RASSI State   32     Total energy:    -148.36312012733814
::    RASSI State   33     Total energy:    -148.33138730571449
::    RASSI State   34     Total energy:    -147.40960945862909
::    RASSI State   35     Total energy:    -147.35411167205885
::    RASSI State   36     Total energy:    -148.87839942907357
::    RASSI State   37     Total energy:    -148.45269908588239
::    RASSI State   38     Total energy:    -148.43406748686672
::    RASSI State   39     Total energy:    -147.50119612976013
::    RASSI State   40     Total energy:    -147.46362932095431
::    RASSI State   41     Total energy:    -147.44486517857962
::    RASSI State   42     Total energy:    -147.57135809817532
::    RASSI State   43     Total energy:    -149.52712763916230
::    RASSI State   44     Total energy:    -148.38705701979197
::    RASSI State   45     Total energy:    -147.64626774467308
::    RASSI State   46     Total energy:    -147.57943911033760
::    RASSI State   47     Total energy:    -147.39826908426511
::    RASSI State   48     Total energy:    -149.56884874509404
::    RASSI State   49     Total energy:    -148.45054436807393
::    RASSI State   50     Total energy:    -147.73442734781295
::    RASSI State   51     Total energy:    -147.71137510443180
::    RASSI State   52     Total energy:    -147.66166354793268
::    RASSI State   53     Total energy:    -147.53727232448378
::    RASSI State   54     Total energy:    -147.88272455741836
::    RASSI State   55     Total energy:    -148.83266360896963
::    RASSI State   56     Total energy:    -148.77954325045530
::    RASSI State   57     Total energy:    -148.00842006306311
::    RASSI State   58     Total energy:    -149.10516597229528
::    RASSI State   59     Total energy:    -149.09731019122742
::    RASSI State   60     Total energy:    -148.38714339568037
::    RASSI State   61     Total energy:    -147.94150984812569
::    RASSI State   62     Total energy:    -147.90975809802569
::    RASSI State   63     Total energy:    -147.31408126304387
::    RASSI State   64     Total energy:    -148.97476844389030
::    RASSI State   65     Total energy:    -148.25273403462845
::    RASSI State   66     Total energy:    -147.95091230564532
::    RASSI State   67     Total energy:    -147.89477350256837
::    RASSI State   68     Total energy:    -147.84057962946022
::    RASSI State   69     Total energy:    -149.02575734969349
::    RASSI State   70     Total energy:    -148.29097069948048
::    RASSI State   71     Total energy:    -148.02504335878558
::    RASSI State   72     Total energy:    -148.01167332811107
::    RASSI State   73     Total energy:    -147.97931481670562
::    RASSI State   74     Total energy:    -147.94152484159994
::    RASSI State   75     Total energy:    -148.10620376998335
::    RASSI State   76     Total energy:    -148.97476844389035
::    RASSI State   77     Total energy:    -148.25273403462847
::    RASSI State   78     Total energy:    -147.95091230564520
::    RASSI State   79     Total energy:    -147.89477350256837
::    RASSI State   80     Total energy:    -147.84057962946028
::    RASSI State   81     Total energy:    -149.02575734969355
::    RASSI State   82     Total energy:    -148.29097069948045
::    RASSI State   83     Total energy:    -148.02504335878575
::    RASSI State   84     Total energy:    -148.01167332811104
::    RASSI State   85     Total energy:    -147.97931481670577
::    RASSI State   86     Total energy:    -147.94152484159994
::    RASSI State   87     Total energy:    -148.10620376998349
::    RASSI State   88     Total energy:    -149.11678344014743
::    RASSI State   89     Total energy:    -148.83266360896960
::    RASSI State   90     Total energy:    -147.84685644267250
::    RASSI State   91     Total energy:    -147.68472066473993
::    RASSI State   92     Total energy:    -147.26489717277383
::    RASSI State   93     Total energy:    -149.10516597229520
::    RASSI State   94     Total energy:    -148.92065123245229
::    RASSI State   95     Total energy:    -147.94150984812572
::    RASSI State   96     Total energy:    -147.91465975700288
::    RASSI State   97     Total energy:    -147.72395224253657
::    RASSI State   98     Total energy:    -147.33489184923485
::    RASSI State   99     Total energy:    -148.05038943072302



      ****************************************************************************************************
      *                                                                                                  *
      *                                         Spin-free section                                        *
      *                                                                                                  *
      *                 Note: index according to input order, order according to energy.                 *
      *                                                                                                  *
      ****************************************************************************************************



  SPIN-FREE ENERGIES:
  (Shifted by EMIN (a.u.) =       -149.5688487451)

 SF State       Relative EMIN(au)   Rel lowest level(eV)    D:o, cm**(-1)      L_eff   Abs_M

    48             0.0000000000        0.0000000000              0.0000         1.3     0.0
    43             0.0417211059        1.1352891281           9156.7243         2.2     2.0
     1             0.0417211059        1.1352891281           9156.7243         2.2     2.0
     2             0.0680081622        1.8505963689          14926.0663         1.4     0.0
    88             0.4520653049       12.3013236213          99216.8662         1.1     0.0
    58             0.4636827728       12.6174510262         101766.6056         2.0     2.0
    93             0.4636827728       12.6174510262         101766.6056         2.0     2.0
    59             0.4715385539       12.8312177191         103490.7503         1.1     0.0
    81             0.5430913954       14.7782697271         119194.7838         1.1     1.0
    69             0.5430913954       14.7782697271         119194.7838         1.1     1.0
    76             0.5940803012       16.1657485372         130385.5551         2.3     1.0
    64             0.5940803012       16.1657485372         130385.5551         2.3     1.0
    94             0.6481975126       17.6383528802         142262.9101         1.0     0.0
    24             0.6904493160       18.7880830215         151536.1091         1.7     1.0
    36             0.6904493160       18.7880830215         151536.1091         1.7     1.0
    55             0.7361851361       20.0326180876         161573.9614         2.1     2.0
    89             0.7361851361       20.0326180876         161573.9614         2.1     2.0
    56             0.7893054946       21.4780966807         173232.5325         1.1     0.0
    31             0.8019701986       21.8227208317         176012.1137         1.1     1.0
    19             0.8019701986       21.8227208317         176012.1137         1.1     1.0
     3             1.1157628333       30.3614534149         244881.6365         1.7     0.0
    25             1.1161496592       30.3719794851         244966.5350         1.5     1.0
    37             1.1161496592       30.3719794851         244966.5350         1.5     1.0
    49             1.1183043770       30.4306123437         245439.4409         0.8     0.0
    38             1.1347812582       30.8789711223         249055.6983         1.6     1.0
    26             1.1347812582       30.8789711223         249055.6983         1.6     1.0
    60             1.1817053494       32.1558406918         259354.3459         1.5     0.0
     4             1.1817917253       32.1581910995         259373.3033         1.8     2.0
    44             1.1817917253       32.1581910995         259373.3033         1.8     2.0
    32             1.2057286178       32.8095471256         264626.8439         1.7     1.0
    20             1.2057286178       32.8095471256         264626.8439         1.7     1.0
     5             1.2101212377       32.9290764025         265590.9125         1.0     0.0
    33             1.2374614394       33.6730411915         271591.3932         1.7     1.0
    21             1.2374614394       33.6730411915         271591.3932         1.7     1.0
    70             1.2778780456       34.7728330744         280461.8130         0.9     1.0
    82             1.2778780456       34.7728330745         280461.8130         0.9     1.0
    77             1.3161147105       35.8133057305         288853.7909         1.7     1.0
    65             1.3161147105       35.8133057305         288853.7909         1.7     1.0
    87             1.4626449751       39.8005973585         321013.4667         1.4     1.0
    75             1.4626449751       39.8005973585         321013.4667         1.4     1.0
    99             1.5184593144       41.3193829022         333263.2983         0.0     0.0
    83             1.5438053863       42.0090846555         338826.1181         1.4     1.0
    71             1.5438053863       42.0090846555         338826.1181         1.4     1.0
    72             1.5571754170       42.3729017243         341760.5006         1.3     1.0
    84             1.5571754170       42.3729017243         341760.5006         1.3     1.0
    57             1.5604286820       42.4614275761         342474.5098         1.4     0.0
    85             1.5895339284       43.2534216765         348862.3730         2.6     3.0
    73             1.5895339284       43.2534216765         348862.3730         2.6     3.0
    66             1.6179364394       44.0262933753         355096.0036         1.3     1.0
    78             1.6179364394       44.0262933753         355096.0036         1.3     1.0
    74             1.6273239035       44.2817392853         357156.3138         1.0     1.0
    86             1.6273239035       44.2817392853         357156.3138         1.0     1.0
    95             1.6273388970       44.2821472785         357159.6045         1.9     2.0
    61             1.6273388970       44.2821472785         357159.6045         1.9     2.0
     6             1.6486004087       44.8607024869         361825.9670         1.0     0.0
    96             1.6541889881       45.0127754788         363052.5184         1.3     0.0
    62             1.6590906471       45.1461564145         364128.3082         0.8     0.0
    67             1.6740752425       45.5539080292         367417.0467         3.0     3.0
    79             1.6740752425       45.5539080292         367417.0467         3.0     3.0
    54             1.6861241877       45.8817765295         370061.4845         1.0     0.0
    90             1.7219923024       46.8577976538         377933.6258         1.5     0.0
    80             1.7282691156       47.0285984425         379311.2271         1.6     1.0
    68             1.7282691156       47.0285984425         379311.2271         1.6     1.0
    13             1.8344213973       49.9171491793         402608.9599         1.9     2.0
    50             1.8344213973       49.9171491793         402608.9599         1.9     2.0
    97             1.8448965026       50.2021913150         404907.9798         0.6     0.0
    51             1.8574736407       50.5444326778         407668.3426         1.0     0.0
    14             1.8669465076       50.8022025192         409747.3965         0.7     0.0
    91             1.8841280804       51.2697369314         413518.3159         0.7     0.0
    52             1.9071851972       51.8971530426         418578.7681         0.2     0.0
     7             1.9225810004       52.3160941916         421957.7563         1.8     2.0
    45             1.9225810004       52.3160941916         421957.7563         1.8     2.0
    16             1.9583905471       53.2905215982         429817.0434         0.7     0.0
     8             1.9584481283       53.2920884613         429829.6810         0.7     0.0
    17             1.9658588598       53.4937447389         431456.1486         0.7     0.0
    46             1.9894096348       54.1345939728         436624.9462         0.5     0.0
    42             1.9974906469       54.3544895160         438398.5234         0.6     1.0
    30             1.9974906469       54.3544895160         438398.5234         0.6     1.0
    53             2.0315764206       55.2820106695         445879.4860         1.3     0.0
    39             2.0676526153       56.2636939384         453797.2955         1.0     1.0
    27             2.0676526153       56.2636939384         453797.2955         1.0     1.0
    15             2.0685049007       56.2868858058         453984.3506         1.3     0.0
    28             2.1052194241       57.2859388828         462042.2571         0.9     1.0
    40             2.1052194241       57.2859388828         462042.2571         0.9     1.0
    29             2.1239835665       57.7965372085         466160.5103         2.6     3.0
    41             2.1239835665       57.7965372085         466160.5103         2.6     3.0
    22             2.1592392865       58.7558942215         473898.2464         1.0     1.0
    34             2.1592392865       58.7558942215         473898.2464         1.0     1.0
     9             2.1705796608       59.0644815285         476387.1709         2.4     2.0
    47             2.1705796608       59.0644815285         476387.1709         2.4     2.0
    10             2.1711019342       59.0786933119         476501.7967         1.6     0.0
    35             2.2147370730       60.2660659277         486078.6027         2.6     3.0
    23             2.2147370730       60.2660659277         486078.6027         2.6     3.0
    98             2.2339568959       60.7890639501         490296.8662         0.8     0.0
    63             2.2547674821       61.3553488489         494864.2619         0.7     0.0
    92             2.3039515723       62.6937161264         505658.9220         0.7     0.0
    11             2.3280849886       63.3504198373         510955.5946         0.3     0.0
    12             2.4793865552       67.4675452077         544162.4502         0.0     0.0
    18             2.9214519721       79.4967580116         641184.5946         0.0     0.0

++ Dipole transition strengths (spin-free states):
   -----------------------------------------------
     for osc. strength at least  1.00000000E-05

      From   To        Osc. strength     Einstein coefficients Ax, Ay, Az (sec-1)    Total A (sec-1)
     -----------------------------------------------------------------------------------------------
        48   94       3.84793580E-01  0.00000000E+00  0.00000000E+00  5.19461567E+09  5.19461567E+09
        48   24       1.65280118E-01  0.00000000E+00  2.53160010E+09  0.00000000E+00  2.53160010E+09
        48   36       1.65280118E-01  2.53160010E+09  0.00000000E+00  0.00000000E+00  2.53160010E+09
        48   25       6.69061625E-05  0.00000000E+00  2.67806964E+06  0.00000000E+00  2.67806964E+06
        48   37       6.69061625E-05  2.67806964E+06  0.00000000E+00  0.00000000E+00  2.67806964E+06
        48   38       4.82785558E-02  1.99751230E+09  0.00000000E+00  0.00000000E+00  1.99751230E+09
        48   26       4.82785558E-02  0.00000000E+00  1.99751230E+09  0.00000000E+00  1.99751230E+09
        48   96       1.56864783E-02  0.00000000E+00  0.00000000E+00  1.37913439E+09  1.37913439E+09
        48   97       9.24501420E-01  0.00000000E+00  0.00000000E+00  1.01102636E+11  1.01102636E+11
        48   39       8.53291612E-05  1.17209688E+07  0.00000000E+00  0.00000000E+00  1.17209688E+07
        48   27       8.53291612E-05  0.00000000E+00  1.17209688E+07  0.00000000E+00  1.17209688E+07
        48   98       3.33358439E-02  0.00000000E+00  0.00000000E+00  5.34529791E+09  5.34529791E+09
        43   89       3.77529435E-01  0.00000000E+00  0.00000000E+00  5.85007203E+09  5.85007203E+09
        43   31       1.65315184E-01  3.06997931E+09  0.00000000E+00  0.00000000E+00  3.06997931E+09
        43   19       1.65315184E-01  0.00000000E+00  3.06997931E+09  0.00000000E+00  3.06997931E+09
        43   32       5.59743252E-03  2.43675191E+08  0.00000000E+00  0.00000000E+00  2.43675191E+08
        43   20       5.59743252E-03  0.00000000E+00  2.43675191E+08  0.00000000E+00  2.43675191E+08
        43   33       8.53886276E-02  3.92269619E+09  0.00000000E+00  0.00000000E+00  3.92269619E+09
        43   21       8.53886276E-02  0.00000000E+00  3.92269619E+09  0.00000000E+00  3.92269619E+09
        43   91       9.35666545E-01  0.00000000E+00  0.00000000E+00  1.02047677E+11  1.02047677E+11
        43   22       3.98812071E-05  0.00000000E+00  5.74557468E+06  0.00000000E+00  5.74557468E+06
        43   34       3.98812071E-05  5.74557468E+06  0.00000000E+00  0.00000000E+00  5.74557468E+06
        43   35       2.64937165E-04  4.01957007E+07  0.00000000E+00  0.00000000E+00  4.01957007E+07
        43   23       2.64937165E-04  0.00000000E+00  4.01957007E+07  0.00000000E+00  4.01957007E+07
         1   55       3.77529435E-01  0.00000000E+00  0.00000000E+00  5.85007203E+09  5.85007203E+09
         1   31       1.65315184E-01  0.00000000E+00  3.06997931E+09  0.00000000E+00  3.06997931E+09
         1   19       1.65315184E-01  3.06997931E+09  0.00000000E+00  0.00000000E+00  3.06997931E+09
         1   32       5.59743252E-03  0.00000000E+00  2.43675191E+08  0.00000000E+00  2.43675191E+08
         1   20       5.59743252E-03  2.43675191E+08  0.00000000E+00  0.00000000E+00  2.43675191E+08
         1   33       8.53886276E-02  0.00000000E+00  3.92269619E+09  0.00000000E+00  3.92269619E+09
         1   21       8.53886276E-02  3.92269619E+09  0.00000000E+00  0.00000000E+00  3.92269619E+09
         1   22       3.98812071E-05  5.74557468E+06  0.00000000E+00  0.00000000E+00  5.74557468E+06
         1   34       3.98812071E-05  0.00000000E+00  5.74557468E+06  0.00000000E+00  5.74557468E+06
         1   35       2.64937165E-04  0.00000000E+00  4.01957007E+07  0.00000000E+00  4.01957007E+07
         1   23       2.64937165E-04  4.01957007E+07  0.00000000E+00  0.00000000E+00  4.01957007E+07
         2   56       3.83540320E-01  0.00000000E+00  0.00000000E+00  6.41136587E+09  6.41136587E+09
         2   31       1.51805272E-01  0.00000000E+00  2.62751335E+09  0.00000000E+00  2.62751335E+09
         2   19       1.51805272E-01  2.62751335E+09  0.00000000E+00  0.00000000E+00  2.62751335E+09
         2   32       4.11797663E-02  0.00000000E+00  1.71263925E+09  0.00000000E+00  1.71263925E+09
         2   20       4.11797663E-02  1.71263925E+09  0.00000000E+00  0.00000000E+00  1.71263925E+09
         2   33       1.78952226E-03  0.00000000E+00  7.86346104E+07  0.00000000E+00  7.86346104E+07
         2   21       1.78952226E-03  7.86346103E+07  0.00000000E+00  0.00000000E+00  7.86346103E+07
         2   57       3.38315870E-02  0.00000000E+00  0.00000000E+00  2.42111644E+09  2.42111644E+09
         2   22       4.45743610E-04  6.26325476E+07  0.00000000E+00  0.00000000E+00  6.26325476E+07
         2   34       4.45743610E-04  0.00000000E+00  6.26325476E+07  0.00000000E+00  6.26325476E+07
        88   76       7.72510081E-03  5.00591478E+06  0.00000000E+00  0.00000000E+00  5.00591478E+06
        88   64       7.72510081E-03  0.00000000E+00  5.00591478E+06  0.00000000E+00  5.00591478E+06
        88   77       1.41875691E-01  3.40326701E+09  0.00000000E+00  0.00000000E+00  3.40326701E+09
        88   65       1.41875691E-01  0.00000000E+00  3.40326701E+09  0.00000000E+00  3.40326701E+09
        88   66       4.58153537E-02  0.00000000E+00  2.00088914E+09  0.00000000E+00  2.00088914E+09
        88   78       4.58153537E-02  2.00088914E+09  0.00000000E+00  0.00000000E+00  2.00088914E+09
        88   80       1.00254511E-02  5.24632125E+08  0.00000000E+00  0.00000000E+00  5.24632125E+08
        88   68       1.00254511E-02  0.00000000E+00  5.24632125E+08  0.00000000E+00  5.24632125E+08
        88   46       1.59707873E-02  0.00000000E+00  0.00000000E+00  1.21277297E+09  1.21277297E+09
        58   81       3.57610253E-03  0.00000000E+00  7.24529663E+05  0.00000000E+00  7.24529663E+05
        58   69       3.57610253E-03  7.24529663E+05  0.00000000E+00  0.00000000E+00  7.24529663E+05
        58   70       9.27760588E-02  1.97607742E+09  0.00000000E+00  0.00000000E+00  1.97607742E+09
        58   82       9.27760588E-02  0.00000000E+00  1.97607742E+09  0.00000000E+00  1.97607742E+09
        58   83       8.15234182E-04  0.00000000E+00  3.05590171E+07  0.00000000E+00  3.05590171E+07
        58   71       8.15234182E-04  3.05590171E+07  0.00000000E+00  0.00000000E+00  3.05590171E+07
        58   72       2.18531669E-02  8.39570167E+08  0.00000000E+00  0.00000000E+00  8.39570167E+08
        58   84       2.18531669E-02  0.00000000E+00  8.39570167E+08  0.00000000E+00  8.39570167E+08
        58   85       1.08506234E-02  0.00000000E+00  4.41903590E+08  0.00000000E+00  4.41903590E+08
        58   73       1.08506234E-02  4.41903590E+08  0.00000000E+00  0.00000000E+00  4.41903590E+08
        58   74       1.67219431E-02  7.27504612E+08  0.00000000E+00  0.00000000E+00  7.27504612E+08
        58   86       1.67219431E-02  0.00000000E+00  7.27504612E+08  0.00000000E+00  7.27504612E+08
        58   13       2.79204108E-03  0.00000000E+00  0.00000000E+00  1.68555135E+08  1.68555135E+08
        93   81       3.57610253E-03  7.24529663E+05  0.00000000E+00  0.00000000E+00  7.24529663E+05
        93   69       3.57610253E-03  0.00000000E+00  7.24529663E+05  0.00000000E+00  7.24529663E+05
        93   70       9.27760588E-02  0.00000000E+00  1.97607742E+09  0.00000000E+00  1.97607742E+09
        93   82       9.27760588E-02  1.97607742E+09  0.00000000E+00  0.00000000E+00  1.97607742E+09
        93   83       8.15234182E-04  3.05590171E+07  0.00000000E+00  0.00000000E+00  3.05590171E+07
        93   71       8.15234182E-04  0.00000000E+00  3.05590171E+07  0.00000000E+00  3.05590171E+07
        93   72       2.18531669E-02  0.00000000E+00  8.39570167E+08  0.00000000E+00  8.39570167E+08
        93   84       2.18531669E-02  8.39570167E+08  0.00000000E+00  0.00000000E+00  8.39570167E+08
        93   85       1.08506234E-02  4.41903590E+08  0.00000000E+00  0.00000000E+00  4.41903590E+08
        93   73       1.08506234E-02  0.00000000E+00  4.41903590E+08  0.00000000E+00  4.41903590E+08
        93   74       1.67219431E-02  0.00000000E+00  7.27504612E+08  0.00000000E+00  7.27504612E+08
        93   86       1.67219431E-02  7.27504612E+08  0.00000000E+00  0.00000000E+00  7.27504612E+08
        93   50       2.79204108E-03  0.00000000E+00  0.00000000E+00  1.68555135E+08  1.68555135E+08
        59   81       3.19727046E-03  0.00000000E+00  5.25949479E+05  0.00000000E+00  5.25949479E+05
        59   69       3.19727046E-03  5.25949479E+05  0.00000000E+00  0.00000000E+00  5.25949479E+05
        59   70       8.79581814E-02  1.83748154E+09  0.00000000E+00  0.00000000E+00  1.83748154E+09
        59   82       8.79581814E-02  0.00000000E+00  1.83748154E+09  0.00000000E+00  1.83748154E+09
        59   83       1.68171178E-02  0.00000000E+00  6.21252563E+08  0.00000000E+00  6.21252563E+08
        59   71       1.68171178E-02  6.21252563E+08  0.00000000E+00  0.00000000E+00  6.21252563E+08
        59   72       2.46855488E-02  9.34808887E+08  0.00000000E+00  0.00000000E+00  9.34808887E+08
        59   84       2.46855488E-02  0.00000000E+00  9.34808887E+08  0.00000000E+00  9.34808887E+08
        59   74       2.83632020E-02  1.21736416E+09  0.00000000E+00  0.00000000E+00  1.21736416E+09
        59   86       2.83632020E-02  0.00000000E+00  1.21736416E+09  0.00000000E+00  1.21736416E+09
        59   14       4.09928603E-03  0.00000000E+00  0.00000000E+00  2.56461096E+08  2.56461096E+08
        59   15       5.68149148E-05  0.00000000E+00  0.00000000E+00  4.65548328E+06  4.65548328E+06
        81   94       1.19704771E-03  4.24891781E+05  0.00000000E+00  0.00000000E+00  4.24891781E+05
        81   36       7.99352628E-02  0.00000000E+00  0.00000000E+00  5.57694369E+07  5.57694369E+07
        81   37       2.32349496E-01  0.00000000E+00  0.00000000E+00  2.45160318E+09  2.45160318E+09
        81   38       5.13960897E-02  0.00000000E+00  0.00000000E+00  5.78134942E+08  5.78134942E+08
        81   60       1.78672812E-01  0.00000000E+00  2.34124123E+09  0.00000000E+00  2.34124123E+09
        81   95       1.33589680E-02  5.04592339E+08  0.00000000E+00  0.00000000E+00  5.04592339E+08
        81   61       1.33589680E-02  0.00000000E+00  5.04592339E+08  0.00000000E+00  5.04592339E+08
        81   96       3.08085527E-02  1.22204330E+09  0.00000000E+00  0.00000000E+00  1.22204330E+09
        81   62       2.98453193E-02  0.00000000E+00  1.19430409E+09  0.00000000E+00  1.19430409E+09
        81   97       2.07391742E-02  1.12926088E+09  0.00000000E+00  0.00000000E+00  1.12926088E+09
        81   39       1.46506325E-03  0.00000000E+00  0.00000000E+00  1.09409994E+08  1.09409994E+08
        81   40       2.50422211E-03  0.00000000E+00  0.00000000E+00  1.96343703E+08  1.96343703E+08
        81   98       9.63764613E-05  8.85319408E+06  0.00000000E+00  0.00000000E+00  8.85319408E+06
        81   63       1.75449464E-03  0.00000000E+00  1.65160465E+08  0.00000000E+00  1.65160465E+08
        69   94       1.19704771E-03  0.00000000E+00  4.24891781E+05  0.00000000E+00  4.24891781E+05
        69   24       7.99352628E-02  0.00000000E+00  0.00000000E+00  5.57694369E+07  5.57694369E+07
        69   25       2.32349496E-01  0.00000000E+00  0.00000000E+00  2.45160318E+09  2.45160318E+09
        69   26       5.13960897E-02  0.00000000E+00  0.00000000E+00  5.78134942E+08  5.78134942E+08
        69   60       1.78672812E-01  2.34124123E+09  0.00000000E+00  0.00000000E+00  2.34124123E+09
        69   95       1.33589680E-02  0.00000000E+00  5.04592339E+08  0.00000000E+00  5.04592339E+08
        69   61       1.33589680E-02  5.04592339E+08  0.00000000E+00  0.00000000E+00  5.04592339E+08
        69   96       3.08085527E-02  0.00000000E+00  1.22204330E+09  0.00000000E+00  1.22204330E+09
        69   62       2.98453193E-02  1.19430409E+09  0.00000000E+00  0.00000000E+00  1.19430409E+09
        69   97       2.07391742E-02  0.00000000E+00  1.12926088E+09  0.00000000E+00  1.12926088E+09
        69   27       1.46506325E-03  0.00000000E+00  0.00000000E+00  1.09409994E+08  1.09409994E+08
        69   28       2.50422211E-03  0.00000000E+00  0.00000000E+00  1.96343703E+08  1.96343703E+08
        69   98       9.63764613E-05  0.00000000E+00  8.85319408E+06  0.00000000E+00  8.85319408E+06
        69   63       1.75449464E-03  1.65160465E+08  0.00000000E+00  0.00000000E+00  1.65160465E+08
        76   55       7.64623907E-04  0.00000000E+00  4.96108268E+05  0.00000000E+00  4.96108268E+05
        76   89       7.64623907E-04  4.96108268E+05  0.00000000E+00  0.00000000E+00  4.96108268E+05
        76   56       2.83158154E-04  0.00000000E+00  3.46746175E+05  0.00000000E+00  3.46746175E+05
        76   31       6.00891309E-02  0.00000000E+00  0.00000000E+00  8.34398617E+07  8.34398617E+07
        76   32       9.77445547E-02  0.00000000E+00  0.00000000E+00  1.17491656E+09  1.17491656E+09
        76   33       2.73406303E-01  0.00000000E+00  0.00000000E+00  3.63626943E+09  3.63626943E+09
        76   57       1.91172102E-01  0.00000000E+00  5.73591682E+09  0.00000000E+00  5.73591682E+09
        76   90       5.17720886E-02  2.11620143E+09  0.00000000E+00  0.00000000E+00  2.11620143E+09
        76   91       1.39456564E-02  7.45695350E+08  0.00000000E+00  0.00000000E+00  7.45695350E+08
        76   34       2.08437371E-04  0.00000000E+00  0.00000000E+00  1.64060257E+07  1.64060257E+07
        64   55       7.64623907E-04  4.96108268E+05  0.00000000E+00  0.00000000E+00  4.96108268E+05
        64   89       7.64623907E-04  0.00000000E+00  4.96108268E+05  0.00000000E+00  4.96108268E+05
        64   56       2.83158154E-04  3.46746175E+05  0.00000000E+00  0.00000000E+00  3.46746175E+05
        64   19       6.00891309E-02  0.00000000E+00  0.00000000E+00  8.34398617E+07  8.34398617E+07
        64   20       9.77445547E-02  0.00000000E+00  0.00000000E+00  1.17491656E+09  1.17491656E+09
        64   21       2.73406303E-01  0.00000000E+00  0.00000000E+00  3.63626943E+09  3.63626943E+09
        64   57       1.91172102E-01  5.73591682E+09  0.00000000E+00  0.00000000E+00  5.73591682E+09
        64   90       5.17720886E-02  0.00000000E+00  2.11620143E+09  0.00000000E+00  2.11620143E+09
        64   91       1.39456564E-02  0.00000000E+00  7.45695350E+08  0.00000000E+00  7.45695350E+08
        64   22       2.08437371E-04  0.00000000E+00  0.00000000E+00  1.64060257E+07  1.64060257E+07
        94   49       4.07109085E-01  0.00000000E+00  0.00000000E+00  2.89077881E+09  2.89077881E+09
        94   70       7.78356884E-02  0.00000000E+00  9.91585546E+08  0.00000000E+00  9.91585546E+08
        94   82       7.78356884E-02  9.91585546E+08  0.00000000E+00  0.00000000E+00  9.91585546E+08
        94   83       2.37466498E-02  6.11996638E+08  0.00000000E+00  0.00000000E+00  6.11996638E+08
        94   71       2.37466498E-02  0.00000000E+00  6.11996638E+08  0.00000000E+00  6.11996638E+08
        94   72       4.07537172E-02  0.00000000E+00  1.08189413E+09  0.00000000E+00  1.08189413E+09
        94   84       4.07537172E-02  1.08189413E+09  0.00000000E+00  0.00000000E+00  1.08189413E+09
        94   74       2.38023289E-02  0.00000000E+00  7.33175339E+08  0.00000000E+00  7.33175339E+08
        94   86       2.38023289E-02  7.33175339E+08  0.00000000E+00  0.00000000E+00  7.33175339E+08
        94   51       3.03135540E-02  0.00000000E+00  0.00000000E+00  1.42429090E+09  1.42429090E+09
        94   52       4.13613917E-02  0.00000000E+00  0.00000000E+00  2.10643950E+09  2.10643950E+09
        94   53       1.42793912E-02  0.00000000E+00  0.00000000E+00  8.78016896E+08  8.78016896E+08
        24   49       1.26053394E-04  0.00000000E+00  7.41410572E+05  0.00000000E+00  7.41410572E+05
        24   70       1.15945966E-01  0.00000000E+00  0.00000000E+00  1.28551424E+09  1.28551424E+09
        24   71       1.50340266E-02  0.00000000E+00  0.00000000E+00  3.51760250E+08  3.51760250E+08
        24   72       1.00774731E-01  0.00000000E+00  0.00000000E+00  2.43235119E+09  2.43235119E+09
        24   74       2.55824975E-03  0.00000000E+00  0.00000000E+00  7.21467449E+07  7.21467449E+07
        24   13       9.37876908E-03  3.94355205E+08  0.00000000E+00  0.00000000E+00  3.94355205E+08
        24   50       9.37876908E-03  0.00000000E+00  3.94355205E+08  0.00000000E+00  3.94355205E+08
        24   51       4.97102820E-02  0.00000000E+00  2.17528881E+09  0.00000000E+00  2.17528881E+09
        24   14       2.12001219E-02  9.42824872E+08  0.00000000E+00  0.00000000E+00  9.42824872E+08
        24   52       1.37395412E-04  0.00000000E+00  6.53545374E+06  0.00000000E+00  6.53545374E+06
        24   53       1.20064518E-03  0.00000000E+00  6.93849765E+07  0.00000000E+00  6.93849765E+07
        24   15       1.65088897E-03  1.00730786E+08  0.00000000E+00  0.00000000E+00  1.00730786E+08
        36   49       1.26053394E-04  7.41410572E+05  0.00000000E+00  0.00000000E+00  7.41410572E+05
        36   82       1.15945966E-01  0.00000000E+00  0.00000000E+00  1.28551424E+09  1.28551424E+09
        36   83       1.50340266E-02  0.00000000E+00  0.00000000E+00  3.51760250E+08  3.51760250E+08
        36   84       1.00774731E-01  0.00000000E+00  0.00000000E+00  2.43235119E+09  2.43235119E+09
        36   86       2.55824975E-03  0.00000000E+00  0.00000000E+00  7.21467449E+07  7.21467449E+07
        36   13       9.37876908E-03  0.00000000E+00  3.94355205E+08  0.00000000E+00  3.94355205E+08
        36   50       9.37876908E-03  3.94355205E+08  0.00000000E+00  0.00000000E+00  3.94355205E+08
        36   51       4.97102820E-02  2.17528881E+09  0.00000000E+00  0.00000000E+00  2.17528881E+09
        36   14       2.12001219E-02  0.00000000E+00  9.42824872E+08  0.00000000E+00  9.42824872E+08
        36   52       1.37395412E-04  6.53545374E+06  0.00000000E+00  0.00000000E+00  6.53545374E+06
        36   53       1.20064518E-03  6.93849765E+07  0.00000000E+00  0.00000000E+00  6.93849765E+07
        36   15       1.65088897E-03  0.00000000E+00  1.00730786E+08  0.00000000E+00  1.00730786E+08
        55    4       4.07266571E-01  0.00000000E+00  0.00000000E+00  2.59832131E+09  2.59832131E+09
        55   77       2.46652941E-02  0.00000000E+00  2.66530979E+08  0.00000000E+00  2.66530979E+08
        55   65       2.46652941E-02  2.66530979E+08  0.00000000E+00  0.00000000E+00  2.66530979E+08
        55   66       1.18320201E-03  2.95571123E+07  0.00000000E+00  0.00000000E+00  2.95571123E+07
        55   78       1.18320201E-03  0.00000000E+00  2.95571123E+07  0.00000000E+00  2.95571123E+07
        55   67       9.64829387E-03  2.72687553E+08  0.00000000E+00  0.00000000E+00  2.72687553E+08
        55   79       9.64829387E-03  0.00000000E+00  2.72687553E+08  0.00000000E+00  2.72687553E+08
        55   80       6.53725858E-03  0.00000000E+00  2.06729960E+08  0.00000000E+00  2.06729960E+08
        55   68       6.53725858E-03  2.06729960E+08  0.00000000E+00  0.00000000E+00  2.06729960E+08
        55    7       5.94741213E-02  0.00000000E+00  0.00000000E+00  2.68966484E+09  2.68966484E+09
        55    9       1.07874203E-02  0.00000000E+00  0.00000000E+00  7.13125095E+08  7.13125095E+08
        89   44       4.07266571E-01  0.00000000E+00  0.00000000E+00  2.59832131E+09  2.59832131E+09
        89   77       2.46652941E-02  2.66530979E+08  0.00000000E+00  0.00000000E+00  2.66530979E+08
        89   65       2.46652941E-02  0.00000000E+00  2.66530979E+08  0.00000000E+00  2.66530979E+08
        89   66       1.18320201E-03  0.00000000E+00  2.95571123E+07  0.00000000E+00  2.95571123E+07
        89   78       1.18320201E-03  2.95571123E+07  0.00000000E+00  0.00000000E+00  2.95571123E+07
        89   67       9.64829387E-03  0.00000000E+00  2.72687553E+08  0.00000000E+00  2.72687553E+08
        89   79       9.64829387E-03  2.72687553E+08  0.00000000E+00  0.00000000E+00  2.72687553E+08
        89   80       6.53725858E-03  2.06729960E+08  0.00000000E+00  0.00000000E+00  2.06729960E+08
        89   68       6.53725858E-03  0.00000000E+00  2.06729960E+08  0.00000000E+00  2.06729960E+08
        89   45       5.94741213E-02  0.00000000E+00  0.00000000E+00  2.68966484E+09  2.68966484E+09
        89   47       1.07874203E-02  0.00000000E+00  0.00000000E+00  7.13125095E+08  7.13125095E+08
        56    3       1.21044245E-03  0.00000000E+00  0.00000000E+00  4.14484123E+06  4.14484123E+06
        56    5       3.99954813E-01  0.00000000E+00  0.00000000E+00  2.27565157E+09  2.27565157E+09
        56   77       9.65335250E-03  0.00000000E+00  8.60787151E+07  0.00000000E+00  8.60787151E+07
        56   65       9.65335250E-03  8.60787151E+07  0.00000000E+00  0.00000000E+00  8.60787151E+07
        56   66       8.73235312E-03  1.92647984E+08  0.00000000E+00  0.00000000E+00  1.92647984E+08
        56   78       8.73235312E-03  0.00000000E+00  1.92647984E+08  0.00000000E+00  1.92647984E+08
        56    6       9.43741706E-03  0.00000000E+00  0.00000000E+00  2.23897123E+08  2.23897123E+08
        56   80       1.70134858E-02  0.00000000E+00  4.81949705E+08  0.00000000E+00  4.81949705E+08
        56   68       1.70134858E-02  4.81949705E+08  0.00000000E+00  0.00000000E+00  4.81949705E+08
        56    8       5.07348459E-02  0.00000000E+00  0.00000000E+00  2.22819002E+09  2.22819002E+09
        56   10       1.03551513E-03  0.00000000E+00  0.00000000E+00  6.35265790E+07  6.35265790E+07
        56   11       1.39647667E-01  0.00000000E+00  0.00000000E+00  1.06242271E+10  1.06242271E+10
        56   12       8.36312214E-03  0.00000000E+00  0.00000000E+00  7.67528291E+08  7.67528291E+08
        31    3       4.66658698E-02  0.00000000E+00  1.47637179E+08  0.00000000E+00  1.47637179E+08
        31    4       2.10471782E-03  0.00000000E+00  9.75582298E+06  0.00000000E+00  9.75582298E+06
        31   44       2.10471782E-03  9.75582298E+06  0.00000000E+00  0.00000000E+00  9.75582298E+06
        31    5       1.24249077E-02  0.00000000E+00  6.65037089E+07  0.00000000E+00  6.65037089E+07
        31   77       1.15949770E-03  0.00000000E+00  0.00000000E+00  9.84807128E+06  9.84807128E+06
        31   78       3.80608805E-03  0.00000000E+00  0.00000000E+00  8.14205620E+07  8.14205620E+07
        31    6       2.61611145E-01  0.00000000E+00  6.02496665E+09  0.00000000E+00  6.02496665E+09
        31    7       2.15935711E-02  0.00000000E+00  8.71254358E+08  0.00000000E+00  8.71254358E+08
        31   45       2.15935711E-02  8.71254358E+08  0.00000000E+00  0.00000000E+00  8.71254358E+08
        31    8       5.09231148E-02  0.00000000E+00  2.18826816E+09  0.00000000E+00  2.18826816E+09
        31   46       3.80456722E-02  1.72361030E+09  0.00000000E+00  0.00000000E+00  1.72361030E+09
        31    9       2.00471168E-03  0.00000000E+00  1.20648487E+08  0.00000000E+00  1.20648487E+08
        31   47       2.00471168E-03  1.20648487E+08  0.00000000E+00  0.00000000E+00  1.20648487E+08
        31   10       7.69989036E-04  0.00000000E+00  4.63752110E+07  0.00000000E+00  4.63752110E+07
        31   11       7.63914373E-03  0.00000000E+00  5.71649683E+08  0.00000000E+00  5.71649683E+08
        19    3       4.66658698E-02  1.47637179E+08  0.00000000E+00  0.00000000E+00  1.47637179E+08
        19    4       2.10471782E-03  9.75582298E+06  0.00000000E+00  0.00000000E+00  9.75582298E+06
        19   44       2.10471782E-03  0.00000000E+00  9.75582298E+06  0.00000000E+00  9.75582298E+06
        19    5       1.24249077E-02  6.65037089E+07  0.00000000E+00  0.00000000E+00  6.65037089E+07
        19   65       1.15949770E-03  0.00000000E+00  0.00000000E+00  9.84807128E+06  9.84807128E+06
        19   66       3.80608805E-03  0.00000000E+00  0.00000000E+00  8.14205620E+07  8.14205620E+07
        19    6       2.61611145E-01  6.02496665E+09  0.00000000E+00  0.00000000E+00  6.02496665E+09
        19    7       2.15935711E-02  8.71254358E+08  0.00000000E+00  0.00000000E+00  8.71254358E+08
        19   45       2.15935711E-02  0.00000000E+00  8.71254358E+08  0.00000000E+00  8.71254358E+08
        19    8       5.09231148E-02  2.18826816E+09  0.00000000E+00  0.00000000E+00  2.18826816E+09
        19   46       3.80456722E-02  0.00000000E+00  1.72361030E+09  0.00000000E+00  1.72361030E+09
        19    9       2.00471168E-03  1.20648487E+08  0.00000000E+00  0.00000000E+00  1.20648487E+08
        19   47       2.00471168E-03  0.00000000E+00  1.20648487E+08  0.00000000E+00  1.20648487E+08
        19   10       7.69989037E-04  4.63752111E+07  0.00000000E+00  0.00000000E+00  4.63752111E+07
        19   11       7.63914373E-03  5.71649683E+08  0.00000000E+00  0.00000000E+00  5.71649683E+08
         3   32       8.73927816E-04  0.00000000E+00  2.27269517E+05  0.00000000E+00  2.27269517E+05
         3   20       8.73927816E-04  2.27269517E+05  0.00000000E+00  0.00000000E+00  2.27269517E+05
         3   33       1.44343772E-03  0.00000000E+00  6.86878848E+05  0.00000000E+00  6.86878848E+05
         3   21       1.44343772E-03  6.86878848E+05  0.00000000E+00  0.00000000E+00  6.86878848E+05
         3   57       3.12269325E-01  0.00000000E+00  0.00000000E+00  1.98384510E+09  1.98384510E+09
        25   49       1.04304441E-04  0.00000000E+00  1.55594587E+01  0.00000000E+00  1.55594587E+01
        25   70       1.82263790E-01  0.00000000E+00  0.00000000E+00  1.53173553E+08  1.53173553E+08
        25   71       3.09494151E-03  0.00000000E+00  0.00000000E+00  1.81866167E+07  1.81866167E+07
        25   72       1.59687389E-02  0.00000000E+00  0.00000000E+00  9.97951447E+07  9.97951447E+07
        25   74       1.55283516E-03  0.00000000E+00  0.00000000E+00  1.30368950E+07  1.30368950E+07
        25   13       9.04500503E-03  1.49933008E+08  0.00000000E+00  0.00000000E+00  1.49933008E+08
        25   50       9.04500503E-03  0.00000000E+00  1.49933008E+08  0.00000000E+00  1.49933008E+08
        25   51       1.31316175E-04  0.00000000E+00  2.31870344E+06  0.00000000E+00  2.31870344E+06
        25   14       2.16222526E-02  3.91612640E+08  0.00000000E+00  0.00000000E+00  3.91612640E+08
        25   52       2.54368753E-02  0.00000000E+00  5.11406960E+08  0.00000000E+00  5.11406960E+08
        25   53       1.91398552E-02  0.00000000E+00  5.15343424E+08  0.00000000E+00  5.15343424E+08
        25   15       4.31556518E-02  1.25761155E+09  0.00000000E+00  0.00000000E+00  1.25761155E+09
        37   49       1.04304441E-04  1.55594587E+01  0.00000000E+00  0.00000000E+00  1.55594587E+01
        37   82       1.82263790E-01  0.00000000E+00  0.00000000E+00  1.53173553E+08  1.53173553E+08
        37   83       3.09494151E-03  0.00000000E+00  0.00000000E+00  1.81866167E+07  1.81866167E+07
        37   84       1.59687389E-02  0.00000000E+00  0.00000000E+00  9.97951447E+07  9.97951447E+07
        37   86       1.55283516E-03  0.00000000E+00  0.00000000E+00  1.30368950E+07  1.30368950E+07
        37   13       9.04500503E-03  0.00000000E+00  1.49933008E+08  0.00000000E+00  1.49933008E+08
        37   50       9.04500503E-03  1.49933008E+08  0.00000000E+00  0.00000000E+00  1.49933008E+08
        37   51       1.31316175E-04  2.31870344E+06  0.00000000E+00  0.00000000E+00  2.31870344E+06
        37   14       2.16222526E-02  0.00000000E+00  3.91612640E+08  0.00000000E+00  3.91612640E+08
        37   52       2.54368753E-02  5.11406960E+08  0.00000000E+00  0.00000000E+00  5.11406960E+08
        37   53       1.91398552E-02  5.15343424E+08  0.00000000E+00  0.00000000E+00  5.15343424E+08
        37   15       4.31556518E-02  0.00000000E+00  1.25761155E+09  0.00000000E+00  1.25761155E+09
        49   38       1.01659028E-04  8.86761559E+02  0.00000000E+00  0.00000000E+00  8.86761559E+02
        49   26       1.01659028E-04  0.00000000E+00  8.86761559E+02  0.00000000E+00  8.86761559E+02
        49   96       2.99230585E-05  0.00000000E+00  0.00000000E+00  2.76095568E+05  2.76095568E+05
        49   97       8.27006139E-04  0.00000000E+00  0.00000000E+00  1.40281690E+07  1.40281690E+07
        49   39       1.78058305E-02  5.15613424E+08  0.00000000E+00  0.00000000E+00  5.15613424E+08
        49   27       1.78058305E-02  0.00000000E+00  5.15613424E+08  0.00000000E+00  5.15613424E+08
        49   28       4.51870886E-02  0.00000000E+00  1.41411518E+09  0.00000000E+00  1.41411518E+09
        49   40       4.51870886E-02  1.41411518E+09  0.00000000E+00  0.00000000E+00  1.41411518E+09
        49   98       1.66272365E-05  0.00000000E+00  0.00000000E+00  6.64949795E+05  6.64949795E+05
        38   82       2.37437082E-02  0.00000000E+00  0.00000000E+00  1.56213728E+07  1.56213728E+07
        38   83       4.85661983E-03  0.00000000E+00  0.00000000E+00  2.61061511E+07  2.61061511E+07
        38   84       1.36980318E-04  0.00000000E+00  0.00000000E+00  7.85244420E+05  7.85244420E+05
        38   86       1.48282358E-04  0.00000000E+00  0.00000000E+00  1.15581424E+06  1.15581424E+06
        38   13       7.27190664E-02  0.00000000E+00  1.14369076E+09  0.00000000E+00  1.14369076E+09
        38   50       7.27190664E-02  1.14369076E+09  0.00000000E+00  0.00000000E+00  1.14369076E+09
        38   51       2.37929577E-03  3.99269622E+07  0.00000000E+00  0.00000000E+00  3.99269622E+07
        38   14       7.09356739E-02  0.00000000E+00  1.22178224E+09  0.00000000E+00  1.22178224E+09
        38   52       1.97255169E-01  3.78118768E+09  0.00000000E+00  0.00000000E+00  3.78118768E+09
        38   53       1.94096670E-02  5.01551439E+08  0.00000000E+00  0.00000000E+00  5.01551439E+08
        38   15       5.60505732E-03  0.00000000E+00  1.57010122E+08  0.00000000E+00  1.57010122E+08
        26   70       2.37437082E-02  0.00000000E+00  0.00000000E+00  1.56213728E+07  1.56213728E+07
        26   71       4.85661983E-03  0.00000000E+00  0.00000000E+00  2.61061511E+07  2.61061511E+07
        26   72       1.36980318E-04  0.00000000E+00  0.00000000E+00  7.85244420E+05  7.85244420E+05
        26   74       1.48282358E-04  0.00000000E+00  0.00000000E+00  1.15581424E+06  1.15581424E+06
        26   13       7.27190664E-02  1.14369076E+09  0.00000000E+00  0.00000000E+00  1.14369076E+09
        26   50       7.27190664E-02  0.00000000E+00  1.14369076E+09  0.00000000E+00  1.14369076E+09
        26   51       2.37929577E-03  0.00000000E+00  3.99269622E+07  0.00000000E+00  3.99269622E+07
        26   14       7.09356739E-02  1.22178224E+09  0.00000000E+00  0.00000000E+00  1.22178224E+09
        26   52       1.97255169E-01  0.00000000E+00  3.78118768E+09  0.00000000E+00  3.78118768E+09
        26   53       1.94096670E-02  0.00000000E+00  5.01551439E+08  0.00000000E+00  5.01551439E+08
        26   15       5.60505732E-03  1.57010122E+08  0.00000000E+00  0.00000000E+00  1.57010122E+08
        60   70       2.88091341E-03  8.56139769E+05  0.00000000E+00  0.00000000E+00  8.56139769E+05
        60   82       2.88091341E-03  0.00000000E+00  8.56139769E+05  0.00000000E+00  8.56139769E+05
        60   72       1.06689936E-05  4.83264597E+04  0.00000000E+00  0.00000000E+00  4.83264597E+04
        60   84       1.06689936E-05  0.00000000E+00  4.83264597E+04  0.00000000E+00  4.83264597E+04
        60   14       2.72581555E-04  0.00000000E+00  0.00000000E+00  4.11238938E+06  4.11238938E+06
        60   15       9.28022109E-02  0.00000000E+00  0.00000000E+00  2.34487737E+09  2.34487737E+09
         4   32       3.97845244E-04  0.00000000E+00  7.32420667E+03  0.00000000E+00  7.32420667E+03
         4   20       3.97845244E-04  7.32420667E+03  0.00000000E+00  0.00000000E+00  7.32420667E+03
         4   33       1.54739511E-03  0.00000000E+00  1.54081353E+05  0.00000000E+00  1.54081353E+05
         4   21       1.54739511E-03  1.54081353E+05  0.00000000E+00  0.00000000E+00  1.54081353E+05
         4   22       6.52712373E-03  2.00363986E+08  0.00000000E+00  0.00000000E+00  2.00363986E+08
         4   34       6.52712373E-03  0.00000000E+00  2.00363986E+08  0.00000000E+00  2.00363986E+08
         4   35       1.76070734E-02  0.00000000E+00  6.03604886E+08  0.00000000E+00  6.03604886E+08
         4   23       1.76070734E-02  6.03604886E+08  0.00000000E+00  0.00000000E+00  6.03604886E+08
        44   32       3.97845244E-04  7.32420667E+03  0.00000000E+00  0.00000000E+00  7.32420667E+03
        44   20       3.97845244E-04  0.00000000E+00  7.32420667E+03  0.00000000E+00  7.32420667E+03
        44   33       1.54739511E-03  1.54081353E+05  0.00000000E+00  0.00000000E+00  1.54081353E+05
        44   21       1.54739511E-03  0.00000000E+00  1.54081353E+05  0.00000000E+00  1.54081353E+05
        44   91       9.60515785E-04  0.00000000E+00  0.00000000E+00  1.52231907E+07  1.52231907E+07
        44   22       6.52712373E-03  0.00000000E+00  2.00363986E+08  0.00000000E+00  2.00363986E+08
        44   34       6.52712373E-03  2.00363986E+08  0.00000000E+00  0.00000000E+00  2.00363986E+08
        44   35       1.76070734E-02  6.03604886E+08  0.00000000E+00  0.00000000E+00  6.03604886E+08
        44   23       1.76070734E-02  0.00000000E+00  6.03604886E+08  0.00000000E+00  6.03604886E+08
        32    5       2.83823236E-05  0.00000000E+00  1.75956811E+01  0.00000000E+00  1.75956811E+01
        32   77       4.02523001E-02  0.00000000E+00  0.00000000E+00  1.57590599E+07  1.57590599E+07
        32   78       5.46918617E-04  0.00000000E+00  0.00000000E+00  2.98583666E+06  2.98583666E+06
        32    6       1.68872124E-02  0.00000000E+00  1.06420399E+08  0.00000000E+00  1.06420399E+08
        32   80       5.27602943E-05  0.00000000E+00  0.00000000E+00  4.62868900E+05  4.62868900E+05
[...]
        33   12          1034.850050  3.06154364E-02  2.69775169E-03
        21   65            79.708690  6.06071165E-02  2.98685082E-01
        21   66            90.111470  1.84805010E-02  9.72087639E-03
        21    6           397.232081  2.47557888E-02  4.97871914E-03
        21   68            46.367378  1.00765946E-02  6.88445387E-03
        21    8            86.668172  4.77039052E-02  2.55554574E-02
        21   46            45.525132  8.00819561E-02  5.50296399E-02
        21    9          5002.035170  4.63895823E-03  9.09236819E-05
        21   47          5002.035176  4.63895823E-03  9.09236818E-05
        21   10           425.830703  1.79669479E-03  3.41686930E-04
        21   11            88.252055  1.71159101E-01  9.09201771E-02
        21   12          1034.850050  3.06154364E-02  2.69775169E-03
        70   96      --------------- below threshold  9.15987852E-05
        70   62            52.241896  7.68527641E-05  1.60920885E-04
        70   97      ---------------  5.75520475E-05 below threshold
        70   27            72.915053  4.76385094E-02  2.75502384E-02
        70   28            64.916614  6.27792344E-02  3.80672590E-02
        70   98      ---------------  1.87499529E-03 below threshold
        82   96      --------------- below threshold  9.15987852E-05
        82   62            52.241896  7.68527641E-05  1.60920885E-04
        82   97      ---------------  5.75520475E-05 below threshold
        82   39            72.915053  4.76385094E-02  2.75502384E-02
        82   40            64.916614  6.27792344E-02  3.80672590E-02
        82   98      ---------------  1.87499529E-03 below threshold
        77   57         22656.233007  1.80403709E-02  7.92766137E-05
        77   90            76.625609  8.01715516E-05  3.42988830E-04
        77   91            63.689495  3.65411556E-05  1.00635217E-04
        77   34            62.128626  1.85700555E-03  1.14539030E-03
        77   92           584.901049  2.19154326E-02  3.19979545E-03
        65   57         22656.233006  1.80403709E-02  7.92766137E-05
        65   90            76.625609  8.01715516E-05  3.42988830E-04
        65   91            63.689495  3.65411556E-05  1.00635217E-04
        65   22            62.128626  1.85700555E-03  1.14539030E-03
        65   92           584.901049  2.19154326E-02  3.19979545E-03
        87   99            15.062261  3.48602267E-03  3.02968379E-03
        87   42            15.814587  2.44910713E-01  2.11467933E-01
        75   99            15.062261  3.48602267E-03  3.02968379E-03
        75   30            15.814587  2.44910713E-01  2.11467933E-01
        99   54            64.779743  6.34818840E-02  1.80242535E-01
        83   95            40.282803  1.10433280E-03  7.87218949E-04
        83   61            40.282803  1.10433280E-03  7.87218949E-04
        83   96            29.454662  1.85517583E-03  1.43306992E-03
        83   62           156.496291  1.25292353E-03  4.88476276E-04
        83   97          2230.758646  1.78675318E-03  7.66597255E-05
        83   39            12.838861  1.24522790E-01  1.10354526E-01
        83   40            36.295971  7.63940482E-02  5.60501149E-02
        83   98            49.922536  5.77373296E-02  3.85114414E-02
        83   63            27.513197  1.92008817E-02  1.50579565E-02
        71   95            40.282803  1.10433280E-03  7.87218949E-04
        71   61            40.282803  1.10433280E-03  7.87218949E-04
        71   96            29.454662  1.85517583E-03  1.43306992E-03
        71   62           156.496291  1.25292353E-03  4.88476276E-04
        71   97          2230.758646  1.78675318E-03  7.66597255E-05
        71   27            12.838861  1.24522790E-01  1.10354526E-01
        71   28            36.295971  7.63940482E-02  5.60501149E-02
        71   98            49.922536  5.77373296E-02  3.85114414E-02
        71   63            27.513197  1.92008817E-02  1.50579565E-02
        72   95           392.658445  3.55481427E-04  7.21557563E-05
        72   61           392.658445  3.55481427E-04  7.21557563E-05
        72   96      --------------- below threshold  1.39275657E-03
        72   62      ---------------  6.38539820E-04 below threshold
        72   97            12.489783  2.22504858E-03  2.54261578E-03
        72   27            10.144643  4.71346232E-02  4.27933867E-02
        72   28            55.554618  5.38938235E-03  3.46462383E-03
        72   98            33.391831  3.16162708E-03  2.37018044E-03
        72   63            19.749057  9.25774912E-02  7.73095781E-02
        84   95           392.658445  3.55481427E-04  7.21557563E-05
        84   61           392.658445  3.55481427E-04  7.21557563E-05
        84   96      --------------- below threshold  1.39275657E-03
        84   62      ---------------  6.38539820E-04 below threshold
        84   97            12.489783  2.22504858E-03  2.54261578E-03
        84   39            10.144643  4.71346232E-02  4.27933867E-02
        84   40            55.554618  5.38938235E-03  3.46462383E-03
        84   98            33.391831  3.16162708E-03  2.37018044E-03
        84   63            19.749057  9.25774912E-02  7.73095781E-02
        57   66      --------------- below threshold  6.16888908E-03
        57   78      --------------- below threshold  6.16888908E-03
        57    6            11.734311  1.91944824E-01  2.17462558E-01
        57   80      --------------- below threshold  2.26453584E-04
        57   68      --------------- below threshold  2.26453584E-04
        57    8           253.965020  2.05708903E-02  5.81156023E-03
        57   10            21.061551  1.53443205E-02  1.26748092E-02
        57   11            39.104284  3.34829823E-01  2.40704178E-01
        57   12            47.165136  7.21722254E-05  1.36599623E-04
        85   95            95.044126  8.18026530E-04  1.65062006E-02
        85   61            95.044126  8.18026530E-04  1.65062006E-02
        85   41            22.379325  2.35059565E-01  1.92074572E-01
        73   95            95.044126  8.18026530E-04  1.65062006E-02
        73   61            95.044126  8.18026530E-04  1.65062006E-02
        73   29            22.379325  2.35059565E-01  1.92074572E-01
        66   90            47.669548  1.82717371E-03  3.49160696E-03
        66   91            44.186455  1.01571216E-02  7.04443530E-03
        66   22            22.099097  2.25554712E-01  1.84730860E-01
        66   92            48.904246  4.36700535E-02  2.93276079E-02
        78   90            47.669548  1.82717371E-03  3.49160696E-03
        78   91            44.186455  1.01571216E-02  7.04443530E-03
        78   34            22.099097  2.25554712E-01  1.84730860E-01
        78   92            48.904246  4.36700535E-02  2.93276079E-02
        74   95      --------------- below threshold  4.04557738E-01
        74   61      --------------- below threshold  4.04557737E-01
        74   96            96.587598  3.18057413E-04  9.32063212E-03
        74   62            93.667318  1.16053320E-04  1.83260942E-03
        74   97            64.664749  1.75149633E-02  1.06367413E-02
        74   27            36.392133  2.24225785E-03  3.52512663E-03
        74   28            11.104352  5.65626972E-02  5.09095245E-02
        74   63            36.752335  3.13057801E-03  2.28923186E-03
        86   95      --------------- below threshold  4.04557738E-01
        86   61      --------------- below threshold  4.04557737E-01
        86   96            96.587598  3.18057413E-04  9.32063212E-03
        86   62            93.667318  1.16053320E-04  1.83260942E-03
        86   97            64.664749  1.75149633E-02  1.06367413E-02
        86   39            36.392133  2.24225785E-03  3.52512663E-03
        86   40            11.104352  5.65626972E-02  5.09095245E-02
        86   63            36.752335  3.13057801E-03  2.28923186E-03
        95   50            42.487282  7.39380124E-02  1.28559412E-01
        61   13            42.487282  7.39380124E-02  1.28559412E-01
         6   22      --------------- below threshold  9.55647284E-05
         6   34      --------------- below threshold  9.55647284E-05
        96   51            53.712970  2.37275658E-02  5.12618021E-02
        96   52            69.161348  2.02325119E-02  1.19604816E-02
        96   53      ---------------  2.36969439E-05 below threshold
        62   14            36.616046  7.49418959E-02  1.18234807E-01
        62   15            60.358290  1.10815403E-02  2.79542441E-02
        67   91           879.124389  8.82548095E-03  9.01364632E-04
        67   23            11.783042  2.47605943E-01  2.21505818E-01
        79   91           879.124389  8.82548095E-03  9.01364632E-04
        79   35            11.783042  2.47605943E-01  2.21505818E-01
        54   42            57.225366  2.10308435E-04  4.91666234E-04
        54   30            57.225366  2.10308435E-04  4.91666234E-04
        90   80      --------------- below threshold  3.96914571E-02
        90   68      --------------- below threshold  3.96914571E-02
        90   46            51.590674  3.44275629E-02  2.27108714E-02
        80   91            18.128923  7.39048666E-04  9.02698115E-04
        80   34            50.037344  3.90664144E-04  7.81912282E-04
        80   92            90.604668  1.90643035E-04  2.02912507E-03
        68   91            18.128923  7.39048666E-04  9.02698115E-04
        68   22            50.037344  3.90664144E-04  7.81912282E-04
        68   92            90.604668  1.90643035E-04  2.02912507E-03
        13   39            20.442918  5.16074746E-05  6.48684861E-05
        13   27            20.442918  5.16074746E-05  6.48684861E-05
        13   28            64.643484  4.87033934E-05  1.37749414E-04
        13   40            64.643484  4.87033934E-05  1.37749414E-04
        13   29      ---------------  1.05703366E-03 below threshold
        13   41      ---------------  1.05703366E-03 below threshold
        50   39            20.442918  5.16074746E-05  6.48684861E-05
        50   27            20.442918  5.16074746E-05  6.48684861E-05
        50   28            64.643484  4.87033934E-05  1.37749414E-04
        50   40            64.643484  4.87033934E-05  1.37749414E-04
        50   29      ---------------  1.05703366E-03 below threshold
        50   41      ---------------  1.05703366E-03 below threshold
        97   51            99.491255  3.79592682E-03  7.46135130E-01
        97   52            73.415797  5.36758500E-03  2.01908818E-02
        97   53      --------------- below threshold  4.98797826E-03
        51   39            93.711104  3.76353816E-05  1.94286135E-05
        51   27            93.711104  3.76353816E-05  1.94286135E-05
        51   28      ---------------  2.79858763E-05 below threshold
        51   40      ---------------  2.79858763E-05 below threshold
        51   98           157.711394  1.33127513E-03  5.16575969E-04
        14   39            97.334912  3.99804794E-05  1.50015623E-03
        14   27            97.334912  3.99804794E-05  1.50015623E-03
        14   28      ---------------  6.21418326E-04 below threshold
        14   40      ---------------  6.21418326E-04 below threshold
        14   63            88.444739  1.47401142E-03  1.27561930E-02
        91   45            94.068154  1.63989333E-02  2.76455803E-01
        91   47            99.616782  3.53189792E-05  9.21642043E-03
        52   39           215.918501  2.00466743E-03  6.34552083E-04
        52   27           215.918501  2.00466743E-03  6.34552083E-04
        52   28          3918.930651  8.15210539E-04  2.02842649E-05
        52   40          3918.930651  8.15210539E-04  2.02842649E-05
        52   98            16.058492  3.83608120E-02  3.30529988E-02
         7   22            36.026603  4.27633015E-05  6.68454442E-05
         7   34            36.026603  4.27633015E-05  6.68454442E-05
         7   35          3853.362071  8.91966273E-04  2.25622206E-05
         7   23          3853.362069  8.91966273E-04  2.25622206E-05
        45   22            36.026603  4.27633015E-05  6.68454442E-05
        45   34            36.026603  4.27633015E-05  6.68454442E-05
        45   35          3853.362070  8.91966273E-04  2.25622206E-05
        45   23          3853.362072  8.91966273E-04  2.25622206E-05
        16   42            97.220613  6.96004284E-04  2.50416461E-02
        16   30            97.220613  6.96004284E-04  2.50416461E-02
         8   22            82.862307  9.24033530E-05  5.39181982E-04
         8   34            82.862307  9.24033530E-05  5.39181982E-04
        17   42            97.381516  5.12440477E-04  1.95701174E-02
        17   30            97.381516  5.12440477E-04  1.95701174E-02
        46   22          3010.295149  2.54757745E-03  8.19079002E-05
        46   34          3010.295149  2.54757745E-03  8.19079002E-05
        46   92           102.657016  1.32520933E-02  6.53917322E-03
        53   39            99.308872  1.82176090E-04  2.63592269E-02
        53   27            99.308872  1.82176090E-04  2.63592269E-02
        53   28            97.680706  2.78141771E-04  1.19925190E-02
        53   40            97.680706  2.78141771E-04  1.19925190E-02
        53   98            40.955617  1.45604688E-01  2.46602097E-01
        39   15            99.993708  1.92731466E-05  3.06303803E-01
        27   15            99.993708  1.92731466E-05  3.06303803E-01
        15   28            90.715777  2.65145327E-04  2.85586972E-03
        15   40            90.715777  2.65145327E-04  2.85586972E-03
        15   63            37.198979  9.71487287E-02  1.54692912E-01
        22    9            99.735152  4.95829071E-05  1.87212784E-02
        22   47            99.735152  4.95829071E-05  1.87212784E-02
        22   10            99.878193  1.78284758E-04  1.46366549E-01
        34    9            99.735152  4.95829070E-05  1.87212784E-02
        34   47            99.735152  4.95829071E-05  1.87212784E-02
        34   10            99.878193  1.78284758E-04  1.46366549E-01
         9   35            98.844238  6.59393642E-04  5.70527151E-02
         9   23            98.844238  6.59393642E-04  5.70527151E-02
        47   35            98.844238  6.59393642E-04  5.70527151E-02
        47   23            98.844238  6.59393642E-04  5.70527151E-02
     ---------------------------------------------------------------

 Number of problematic transitions =                   552

--

 Electric-dipole - electric-octupole not included
 Electric-dipole - magnetic-quadrupole not included

++ Second-order contribution to the transition strengths (spin-free states):
   -------------------------------------------------------------------------
     for osc. strength at least  1.00000000E-05

      From   To        Osc. strength
     -------------------------------
        43   45       1.56065554E-05
         1    7       1.56065554E-05
         2    8       1.42642813E-05
        88   92       1.47308057E-05
        76    3       1.14485920E-05
        64    3       1.14485920E-05
     -------------------------------
--


      ****************************************************************************************************
      *                                                                                                  *
      *                                    Special properties section                                    *
      *                                                                                                  *
      ****************************************************************************************************


++ I/O STATISTICS
 
  I. General I/O information
  - - - - - - - - - - - - - - - - - - - - - - - - - - - - - - - - - - - - - - - - - - -
  Unit  Name          Flsize      Write/Read            MBytes           Write/Read
                      (MBytes)       Calls              In/Out           Time, sec.
  - - - - - - - - - - - - - - - - - - - - - - - - - - - - - - - - - - - - - - - - - - -
   1  RUNFILE           0.99 .     266/  263351 .      2.5/   1905.1 .       0/       0
   2  ANNI              0.00 .       0/       0 .      0.0/      0.0 .       0/       0
   3  ONEINT            1.54 .       0/  126040 .      0.0/ 152831.4 .       0/      19
   4  JOBIPH            1.52 .       0/     651 .      0.0/      1.5 .       0/       0
   5  JOBIPH01          1.22 .       0/     219 .      0.0/      1.3 .       0/       0
   6  JOBIPH02          1.22 .       0/     219 .      0.0/      1.3 .       0/       0
   7  JOBIPH03          1.28 .       0/     315 .      0.0/      1.4 .       0/       0
   8  JOBIPH04          1.32 .       0/     363 .      0.0/      1.4 .       0/       0
   9  JOBIPH05          1.15 .       0/     123 .      0.0/      1.3 .       0/       0
  10  JOBIPH06          1.28 .       0/     315 .      0.0/      1.4 .       0/       0
  11  JOBIPH07          1.32 .       0/     363 .      0.0/      1.4 .       0/       0
  12  JOBIPH08          1.15 .       0/     123 .      0.0/      1.3 .       0/       0
  13  JOBIPH09          1.28 .       0/     315 .      0.0/      1.4 .       0/       0
  14  JOBIPH10          1.32 .       0/     363 .      0.0/      1.4 .       0/       0
  15  JOBIPH11          1.15 .       0/     123 .      0.0/      1.3 .       0/       0
  16  JOBIPH12          1.22 .       0/     219 .      0.0/      1.3 .       0/       0
  17  JOBIPH13          1.32 .       0/     363 .      0.0/      1.4 .       0/       0
  18  JOBIPH14          1.28 .       0/     315 .      0.0/      1.4 .       0/       0
  19  JOBIPH15          1.32 .       0/     363 .      0.0/      1.4 .       0/       0
  20  JOBIPH16          1.15 .       0/     123 .      0.0/      1.3 .       0/       0
  21  JOBIPH17          1.28 .       0/     315 .      0.0/      1.4 .       0/       0
  22  JOBIPH18          1.32 .       0/     363 .      0.0/      1.4 .       0/       0
  23  JOBIPH19          1.15 .       0/     123 .      0.0/      1.3 .       0/       0
  24  JOBIPH20          1.28 .       0/     315 .      0.0/      1.4 .       0/       0
  25  JOBIPH21          1.32 .       0/     363 .      0.0/      1.4 .       0/       0
  26  JOBIPH22          1.15 .       0/     123 .      0.0/      1.3 .       0/       0
  - - - - - - - - - - - - - - - - - - - - - - - - - - - - - - - - - - - - - - - - - - -
   *  TOTAL            31.50 .     266/  395868 .      2.5/ 154767.6 .       0/      19
  - - - - - - - - - - - - - - - - - - - - - - - - - - - - - - - - - - - - - - - - - - -
 
  II. I/O Access Patterns
  - - - - - - - - - - - - - - - - - - - -
  Unit  Name               % of random
                         Write/Read calls
  - - - - - - - - - - - - - - - - - - - -
   1  RUNFILE             28.6/  11.1
   2  ANNI                 0.0/   0.0
   3  ONEINT               0.0/  99.3
   4  JOBIPH               0.0/  51.9
   5  JOBIPH01             0.0/  55.7
   6  JOBIPH02             0.0/  55.7
   7  JOBIPH03             0.0/  54.0
   8  JOBIPH04             0.0/  53.4
   9  JOBIPH05             0.0/  60.2
  10  JOBIPH06             0.0/  54.0
  11  JOBIPH07             0.0/  53.4
  12  JOBIPH08             0.0/  60.2
  13  JOBIPH09             0.0/  54.0
  14  JOBIPH10             0.0/  53.4
  15  JOBIPH11             0.0/  60.2
  16  JOBIPH12             0.0/  55.7
  17  JOBIPH13             0.0/  53.4
  18  JOBIPH14             0.0/  54.0
  19  JOBIPH15             0.0/  53.4
  20  JOBIPH16             0.0/  60.2
  21  JOBIPH17             0.0/  54.0
  22  JOBIPH18             0.0/  53.4
  23  JOBIPH19             0.0/  60.2
  24  JOBIPH20             0.0/  54.0
  25  JOBIPH21             0.0/  53.4
  26  JOBIPH22             0.0/  60.2
  - - - - - - - - - - - - - - - - - - - -
--
--- Stop Module: rassi at Thu Apr 17 10:55:21 2025 /rc=_RC_ALL_IS_WELL_ ---
--- Module rassi spent 41 seconds ---

.##################.
.# Happy landing! #.
.##################.

    Timing: Wall=41.25 User=19.83 System=20.60
