   This run of MOLCAS is using the pymolcas driver

                             OPE
                             OPE          NMOL  CASOP  ENMOLC A   SO
                 OPE        NMOLC        AS  OP EN  MO LC     AS  OP
                OPENM       OL CA        SO  PE NM  OL CA     SOP EN
                OP EN      MO   LC       AS  OP ENMOL  CASO   PENMOL
                OP  EN     MO   LC       AS  OP EN     MO     LC ASO
               OP   E  NMOL  C  AS       OP  EN MO     LC     AS  OP
               OP  E   NMO   LC AS        OPEN  MO     LCASOP EN   M
               O  PEN   MO  LCA  SO
            OPE   NMO   L   CAS    OP
        OPENMOL  CASOP     ENMOL   CASOPE
     OPENMOLCA   SOPENMOLCASOPEN   MOLCASOPE
    OPENMOLCAS   OP           EN   MOL    CAS
    OPENMOLCAS       OP  ENM        O     LCA
    OPENMOLCAS    OPEN  MOLCASO     P  E  NMO
    OPENMOLCAS     OP               E  N  MOL
    OPENMOLCA   SO           PENM   O  L  CAS    OPEN    MO    LCAS
    OPENMOLCA   SOP           ENM   O  L  CAS   OP  EN  MOLC  AS   O
    OPENMOLCA   SOPE           NM      O  LCA   S      OP  EN MO
    OPENMOLC                AS         O  PEN   M      OL  CA  SOPE
    OPENMO        LCASOPE  NMOL        C  ASO   P      ENMOLC     AS
    OPE     NMO      LCA  SO     P     E   NM   OL  CA SO  PE N   MO
          OPENMOLCA            SOPE   NMO        LCAS  O    P  ENMO
     OPENMOLCASOPENMOLCASOPENMOLCASOPENMOLCA
        OPENMOLCASOPENMOLCASOPENMOLCASOPE
            OPENMOLCASOPENMOLCASOPENM
               OPENMOLCASOPENMOLCA        version: 25.02
                   OPENMOLCASO
                       OPE                tag: 92-gf4b470f0a

 OpenMolcas is free software; you can redistribute it and/or modify it
 under the terms of the GNU Lesser General Public License version 2.1.
 OpenMolcas is distributed in the hope that it will be useful, but it
 is provided "as is" and without any express or implied warranties.
 For more details see the full text of the license in the file
 LICENSE or in <http://www.gnu.org/licenses/>.

                 Copyright (C) The OpenMolcas Authors
           For the author list and the recommended citation,
                   consult the file CONTRIBUTORS.md

           *************************************************
           * pymolcas version py2.29                       *
           *   build 2ba4516c4d154a59cba941070ba63e2c      *
           *   (after the EMIL interpreter by V. Veryazov) *
           *************************************************

configuration info
------------------
Host name: iftia91.univ.gda.pl (Linux)
C Compiler ID: GNU
C flags: -std=gnu99
Fortran Compiler ID: GNU
Fortran flags: -cpp -fdefault-integer-8 -fmax-stack-var-size=1048576
Definitions: _MOLCAS_;_I8_;_LINUX_
Parallel: OFF (GA=OFF)


   --------------------------------------------------------------------
  |
  |           Project: O2
  |    Submitted from: /scratch/tecumseh/WorkSpace/O2.0.6750
  |      Scratch area: /scratch/tecumseh/WorkSpace/O2.0.6750
  |   Save outputs to: WORKDIR
  |            Molcas: /home/tecumseh/program/OpenMolcas/build
  |
  | Scratch area is NOT empty
  |
  |    MOLCAS_DRIVER = /home/tecumseh/program/OpenMolcas/build/pymolcas
  |    MOLCAS_NPROCS = 1
  |    MOLCAS_SOURCE = /home/tecumseh/program/OpenMolcas/OpenMolcas
  | MOLCAS_STRUCTURE = 0
  |
   --------------------------------------------------------------------

++ ---------   Input file   ---------

>>> COPY $dir/vectors/$Project.$R.1Ag-12S.JobIph $WorkDir/JOBIPH

>>> COPY $dir/vectors/$Project.$R.3Ag-3S.JobIph $WorkDir/JOBIPH01

>>> COPY $dir/vectors/$Project.$R.5Ag-3S.JobIph $WorkDir/JOBIPH02

>>> COPY $dir/vectors/$Project.$R.1B3u-5S.JobIph $WorkDir/JOBIPH03

>>> COPY $dir/vectors/$Project.$R.3B3u-6S.JobIph $WorkDir/JOBIPH04

>>> COPY $dir/vectors/$Project.$R.5B3u-1S.JobIph $WorkDir/JOBIPH05

>>> COPY $dir/vectors/$Project.$R.1B2u-5S.JobIph $WorkDir/JOBIPH06

>>> COPY $dir/vectors/$Project.$R.3B2u-6S.JobIph $WorkDir/JOBIPH07

>>> COPY $dir/vectors/$Project.$R.5B2u-1S.JobIph $WorkDir/JOBIPH08

>>> COPY $dir/vectors/$Project.$R.1B1g-5S.JobIph $WorkDir/JOBIPH09

>>> COPY $dir/vectors/$Project.$R.3B1g-6S.JobIph $WorkDir/JOBIPH10

>>> COPY $dir/vectors/$Project.$R.5B1g-1S.JobIph $WorkDir/JOBIPH11

>>> COPY $dir/vectors/$Project.$R.1B1u-3S.JobIph $WorkDir/JOBIPH12

>>> COPY $dir/vectors/$Project.$R.3B1u-6S.JobIph $WorkDir/JOBIPH13

>>> COPY $dir/vectors/$Project.$R.1B2g-5S.JobIph $WorkDir/JOBIPH14

>>> COPY $dir/vectors/$Project.$R.3B2g-6S.JobIph $WorkDir/JOBIPH15

>>> COPY $dir/vectors/$Project.$R.5B2g-1S.JobIph $WorkDir/JOBIPH16

>>> COPY $dir/vectors/$Project.$R.1B3g-5S.JobIph $WorkDir/JOBIPH17

>>> COPY $dir/vectors/$Project.$R.3B3g-6S.JobIph $WorkDir/JOBIPH18

>>> COPY $dir/vectors/$Project.$R.5B3g-1S.JobIph $WorkDir/JOBIPH19

>>> COPY $dir/vectors/$Project.$R.1Au-5S.JobIph $WorkDir/JOBIPH20

>>> COPY $dir/vectors/$Project.$R.3Au-6S.JobIph $WorkDir/JOBIPH21

>>> COPY $dir/vectors/$Project.$R.5Au-1S.JobIph $WorkDir/JOBIPH22

&RASSI

OMEGa
NROF=23 12 3 3 5 6 1 5 6 1 5 6 1 3 6 5 6 1 5 6 1 5 6 1
1 2 3 4 5 6 7 8 9 10 11 12
1 2 3
1 2 3
1 2 3 4 5
1 2 3 4 5 6
1
1 2 3 4 5
1 2 3 4 5 6
1
1 2 3 4 5
1 2 3 4 5 6
1
1 2 3
1 2 3 4 5 6
1 2 3 4 5
1 2 3 4 5 6
1
1 2 3 4 5
1 2 3 4 5 6
1
1 2 3 4 5
1 2 3 4 5 6
1
EJOB

-- ----------------------------------

>>> COPY /home/tecumseh/project/molecule/O2/OpenMolcas/vectors/O2.0.6750.1Ag-12S.JobIph /scratch/tecumseh/WorkSpace/O2.0.6750/JOBIPH

>>> COPY /home/tecumseh/project/molecule/O2/OpenMolcas/vectors/O2.0.6750.3Ag-3S.JobIph /scratch/tecumseh/WorkSpace/O2.0.6750/JOBIPH01

>>> COPY /home/tecumseh/project/molecule/O2/OpenMolcas/vectors/O2.0.6750.5Ag-3S.JobIph /scratch/tecumseh/WorkSpace/O2.0.6750/JOBIPH02

>>> COPY /home/tecumseh/project/molecule/O2/OpenMolcas/vectors/O2.0.6750.1B3u-5S.JobIph /scratch/tecumseh/WorkSpace/O2.0.6750/JOBIPH03

>>> COPY /home/tecumseh/project/molecule/O2/OpenMolcas/vectors/O2.0.6750.3B3u-6S.JobIph /scratch/tecumseh/WorkSpace/O2.0.6750/JOBIPH04

>>> COPY /home/tecumseh/project/molecule/O2/OpenMolcas/vectors/O2.0.6750.5B3u-1S.JobIph /scratch/tecumseh/WorkSpace/O2.0.6750/JOBIPH05

>>> COPY /home/tecumseh/project/molecule/O2/OpenMolcas/vectors/O2.0.6750.1B2u-5S.JobIph /scratch/tecumseh/WorkSpace/O2.0.6750/JOBIPH06

>>> COPY /home/tecumseh/project/molecule/O2/OpenMolcas/vectors/O2.0.6750.3B2u-6S.JobIph /scratch/tecumseh/WorkSpace/O2.0.6750/JOBIPH07

>>> COPY /home/tecumseh/project/molecule/O2/OpenMolcas/vectors/O2.0.6750.5B2u-1S.JobIph /scratch/tecumseh/WorkSpace/O2.0.6750/JOBIPH08

>>> COPY /home/tecumseh/project/molecule/O2/OpenMolcas/vectors/O2.0.6750.1B1g-5S.JobIph /scratch/tecumseh/WorkSpace/O2.0.6750/JOBIPH09

>>> COPY /home/tecumseh/project/molecule/O2/OpenMolcas/vectors/O2.0.6750.3B1g-6S.JobIph /scratch/tecumseh/WorkSpace/O2.0.6750/JOBIPH10

>>> COPY /home/tecumseh/project/molecule/O2/OpenMolcas/vectors/O2.0.6750.5B1g-1S.JobIph /scratch/tecumseh/WorkSpace/O2.0.6750/JOBIPH11

>>> COPY /home/tecumseh/project/molecule/O2/OpenMolcas/vectors/O2.0.6750.1B1u-3S.JobIph /scratch/tecumseh/WorkSpace/O2.0.6750/JOBIPH12

>>> COPY /home/tecumseh/project/molecule/O2/OpenMolcas/vectors/O2.0.6750.3B1u-6S.JobIph /scratch/tecumseh/WorkSpace/O2.0.6750/JOBIPH13

>>> COPY /home/tecumseh/project/molecule/O2/OpenMolcas/vectors/O2.0.6750.1B2g-5S.JobIph /scratch/tecumseh/WorkSpace/O2.0.6750/JOBIPH14

>>> COPY /home/tecumseh/project/molecule/O2/OpenMolcas/vectors/O2.0.6750.3B2g-6S.JobIph /scratch/tecumseh/WorkSpace/O2.0.6750/JOBIPH15

>>> COPY /home/tecumseh/project/molecule/O2/OpenMolcas/vectors/O2.0.6750.5B2g-1S.JobIph /scratch/tecumseh/WorkSpace/O2.0.6750/JOBIPH16

>>> COPY /home/tecumseh/project/molecule/O2/OpenMolcas/vectors/O2.0.6750.1B3g-5S.JobIph /scratch/tecumseh/WorkSpace/O2.0.6750/JOBIPH17

>>> COPY /home/tecumseh/project/molecule/O2/OpenMolcas/vectors/O2.0.6750.3B3g-6S.JobIph /scratch/tecumseh/WorkSpace/O2.0.6750/JOBIPH18

>>> COPY /home/tecumseh/project/molecule/O2/OpenMolcas/vectors/O2.0.6750.5B3g-1S.JobIph /scratch/tecumseh/WorkSpace/O2.0.6750/JOBIPH19

>>> COPY /home/tecumseh/project/molecule/O2/OpenMolcas/vectors/O2.0.6750.1Au-5S.JobIph /scratch/tecumseh/WorkSpace/O2.0.6750/JOBIPH20

>>> COPY /home/tecumseh/project/molecule/O2/OpenMolcas/vectors/O2.0.6750.3Au-6S.JobIph /scratch/tecumseh/WorkSpace/O2.0.6750/JOBIPH21

>>> COPY /home/tecumseh/project/molecule/O2/OpenMolcas/vectors/O2.0.6750.5Au-1S.JobIph /scratch/tecumseh/WorkSpace/O2.0.6750/JOBIPH22

--- Start Module: rassi at Thu Apr 17 10:45:52 2025 ---

()()()()()()()()()()()()()()()()()()()()()()()()()()()()()()()()()()()()()()()()()()()()()()()()()()

                                               &RASSI

                                   only a single process is used
                       available to each process: 2.0 GB of memory, 1 thread?
                                            pid: 297288
()()()()()()()()()()()()()()()()()()()()()()()()()()()()()()()()()()()()()()()()()()()()()()()()()()


      ********************************************************************************
      *                                                                              *
      *                             General data section                             *
      *                                                                              *
      ********************************************************************************

   Specific data for JOBIPH file JOBIPH
   -------------------------------------

   Header from SEWARD:
                            O2, D2h symmetry, aug-cc-pVTZ                      
        Integrals generated by Gateway/Seward, Wed Apr 16 15:35:45 2025        

   CASSCF title (first line only):
       O2, 1Ag 12S                                                             

  STATE IRREP:                1
  SPIN MULTIPLICITY:          1
  ACTIVE ELECTRONS:          12
  MAX RAS1 HOLES:             0
  MAX RAS3 ELECTRONS:         0
  NR OF CONFIG:              60

   Specific data for JOBIPH file JOBIPH01
   -------------------------------------

   Header from SEWARD:
                            O2, D2h symmetry, aug-cc-pVTZ                      
        Integrals generated by Gateway/Seward, Wed Apr 16 15:35:45 2025        

   CASSCF title (first line only):
       O2, 3Ag  3S                                                             

  STATE IRREP:                1
  SPIN MULTIPLICITY:          3
  ACTIVE ELECTRONS:          12
  MAX RAS1 HOLES:             0
  MAX RAS3 ELECTRONS:         0
  NR OF CONFIG:              42

   Specific data for JOBIPH file JOBIPH02
   -------------------------------------

   Header from SEWARD:
                            O2, D2h symmetry, aug-cc-pVTZ                      
        Integrals generated by Gateway/Seward, Wed Apr 16 15:35:45 2025        

   CASSCF title (first line only):
       O2, 5Ag  3S                                                             

  STATE IRREP:                1
  SPIN MULTIPLICITY:          5
  ACTIVE ELECTRONS:          12
  MAX RAS1 HOLES:             0
  MAX RAS3 ELECTRONS:         0
  NR OF CONFIG:              10

   Specific data for JOBIPH file JOBIPH03
   -------------------------------------

   Header from SEWARD:
                            O2, D2h symmetry, aug-cc-pVTZ                      
        Integrals generated by Gateway/Seward, Thu Apr 17 10:45:41 2025        

   CASSCF title (first line only):
       O2, 1B3u 5S                                                             

  STATE IRREP:                2
  SPIN MULTIPLICITY:          1
  ACTIVE ELECTRONS:          12
  MAX RAS1 HOLES:             0
  MAX RAS3 ELECTRONS:         0
  NR OF CONFIG:              40

   Specific data for JOBIPH file JOBIPH04
   -------------------------------------

   Header from SEWARD:
                            O2, D2h symmetry, aug-cc-pVTZ                      
        Integrals generated by Gateway/Seward, Wed Apr 16 15:35:45 2025        

   CASSCF title (first line only):
       O2, 3B3u 6S                                                             

  STATE IRREP:                2
  SPIN MULTIPLICITY:          3
  ACTIVE ELECTRONS:          12
  MAX RAS1 HOLES:             0
  MAX RAS3 ELECTRONS:         0
  NR OF CONFIG:              48

   Specific data for JOBIPH file JOBIPH05
   -------------------------------------

   Header from SEWARD:
                            O2, D2h symmetry, aug-cc-pVTZ                      
        Integrals generated by Gateway/Seward, Wed Apr 16 15:35:45 2025        

   CASSCF title (first line only):
       O2, 5B3u 1S                                                             

  STATE IRREP:                2
  SPIN MULTIPLICITY:          5
  ACTIVE ELECTRONS:          12
  MAX RAS1 HOLES:             0
  MAX RAS3 ELECTRONS:         0
  NR OF CONFIG:               8

   Specific data for JOBIPH file JOBIPH06
   -------------------------------------

   Header from SEWARD:
                            O2, D2h symmetry, aug-cc-pVTZ                      
        Integrals generated by Gateway/Seward, Thu Apr 17 10:45:41 2025        

   CASSCF title (first line only):
       O2, 1B2u 5S                                                             

  STATE IRREP:                3
  SPIN MULTIPLICITY:          1
  ACTIVE ELECTRONS:          12
  MAX RAS1 HOLES:             0
  MAX RAS3 ELECTRONS:         0
  NR OF CONFIG:              40

   Specific data for JOBIPH file JOBIPH07
   -------------------------------------

   Header from SEWARD:
                            O2, D2h symmetry, aug-cc-pVTZ                      
        Integrals generated by Gateway/Seward, Wed Apr 16 15:35:45 2025        

   CASSCF title (first line only):
       O2, 3B2u 6S                                                             

  STATE IRREP:                3
  SPIN MULTIPLICITY:          3
  ACTIVE ELECTRONS:          12
  MAX RAS1 HOLES:             0
  MAX RAS3 ELECTRONS:         0
  NR OF CONFIG:              48

   Specific data for JOBIPH file JOBIPH08
   -------------------------------------

   Header from SEWARD:
                            O2, D2h symmetry, aug-cc-pVTZ                      
        Integrals generated by Gateway/Seward, Wed Apr 16 15:35:45 2025        

   CASSCF title (first line only):
       O2, 5B2u 1S                                                             

  STATE IRREP:                3
  SPIN MULTIPLICITY:          5
  ACTIVE ELECTRONS:          12
  MAX RAS1 HOLES:             0
  MAX RAS3 ELECTRONS:         0
  NR OF CONFIG:               8

   Specific data for JOBIPH file JOBIPH09
   -------------------------------------

   Header from SEWARD:
                            O2, D2h symmetry, aug-cc-pVTZ                      
        Integrals generated by Gateway/Seward, Wed Apr 16 15:35:45 2025        

   CASSCF title (first line only):
       O2, 1B1g 5S                                                             

  STATE IRREP:                4
  SPIN MULTIPLICITY:          1
  ACTIVE ELECTRONS:          12
  MAX RAS1 HOLES:             0
  MAX RAS3 ELECTRONS:         0
  NR OF CONFIG:              36

   Specific data for JOBIPH file JOBIPH10
   -------------------------------------

   Header from SEWARD:
                            O2, D2h symmetry, aug-cc-pVTZ                      
        Integrals generated by Gateway/Seward, Wed Apr 16 15:35:45 2025        

   CASSCF title (first line only):
       O2, 3B1g 6S                                                             

  STATE IRREP:                4
  SPIN MULTIPLICITY:          3
  ACTIVE ELECTRONS:          12
  MAX RAS1 HOLES:             0
  MAX RAS3 ELECTRONS:         0
  NR OF CONFIG:              48

   Specific data for JOBIPH file JOBIPH11
   -------------------------------------

   Header from SEWARD:
                            O2, D2h symmetry, aug-cc-pVTZ                      
        Integrals generated by Gateway/Seward, Wed Apr 16 15:35:45 2025        

   CASSCF title (first line only):
       O2, 5B1g 1S                                                             

  STATE IRREP:                4
  SPIN MULTIPLICITY:          5
  ACTIVE ELECTRONS:          12
  MAX RAS1 HOLES:             0
  MAX RAS3 ELECTRONS:         0
  NR OF CONFIG:              12

   Specific data for JOBIPH file JOBIPH12
   -------------------------------------

   Header from SEWARD:
                            O2, D2h symmetry, aug-cc-pVTZ                      
        Integrals generated by Gateway/Seward, Thu Apr 17 10:45:41 2025        

   CASSCF title (first line only):
       O2, 1B1u 3S                                                             

  STATE IRREP:                5
  SPIN MULTIPLICITY:          1
  ACTIVE ELECTRONS:          12
  MAX RAS1 HOLES:             0
  MAX RAS3 ELECTRONS:         0
  NR OF CONFIG:              44

   Specific data for JOBIPH file JOBIPH13
   -------------------------------------

   Header from SEWARD:
                            O2, D2h symmetry, aug-cc-pVTZ                      
        Integrals generated by Gateway/Seward, Wed Apr 16 15:35:45 2025        

   CASSCF title (first line only):
       O2, 3B1u 6S                                                             

  STATE IRREP:                5
  SPIN MULTIPLICITY:          3
  ACTIVE ELECTRONS:          12
  MAX RAS1 HOLES:             0
  MAX RAS3 ELECTRONS:         0
  NR OF CONFIG:              48

   Specific data for JOBIPH file JOBIPH14
   -------------------------------------

   Header from SEWARD:
                            O2, D2h symmetry, aug-cc-pVTZ                      
        Integrals generated by Gateway/Seward, Wed Apr 16 15:35:45 2025        

   CASSCF title (first line only):
       O2, 1B2g 5S                                                             

  STATE IRREP:                6
  SPIN MULTIPLICITY:          1
  ACTIVE ELECTRONS:          12
  MAX RAS1 HOLES:             0
  MAX RAS3 ELECTRONS:         0
  NR OF CONFIG:              40

   Specific data for JOBIPH file JOBIPH15
   -------------------------------------

   Header from SEWARD:
                            O2, D2h symmetry, aug-cc-pVTZ                      
        Integrals generated by Gateway/Seward, Wed Apr 16 15:35:45 2025        

   CASSCF title (first line only):
       O2, 3B2g 6S                                                             

  STATE IRREP:                6
  SPIN MULTIPLICITY:          3
  ACTIVE ELECTRONS:          12
  MAX RAS1 HOLES:             0
  MAX RAS3 ELECTRONS:         0
  NR OF CONFIG:              48

   Specific data for JOBIPH file JOBIPH16
   -------------------------------------

   Header from SEWARD:
                            O2, D2h symmetry, aug-cc-pVTZ                      
        Integrals generated by Gateway/Seward, Wed Apr 16 15:35:45 2025        

   CASSCF title (first line only):
       O2, 5B2g 1S                                                             

  STATE IRREP:                6
  SPIN MULTIPLICITY:          5
  ACTIVE ELECTRONS:          12
  MAX RAS1 HOLES:             0
  MAX RAS3 ELECTRONS:         0
  NR OF CONFIG:               8

   Specific data for JOBIPH file JOBIPH17
   -------------------------------------

   Header from SEWARD:
                            O2, D2h symmetry, aug-cc-pVTZ                      
        Integrals generated by Gateway/Seward, Wed Apr 16 15:35:45 2025        

   CASSCF title (first line only):
       O2, 1B3g 5S                                                             

  STATE IRREP:                7
  SPIN MULTIPLICITY:          1
  ACTIVE ELECTRONS:          12
  MAX RAS1 HOLES:             0
  MAX RAS3 ELECTRONS:         0
  NR OF CONFIG:              40

   Specific data for JOBIPH file JOBIPH18
   -------------------------------------

   Header from SEWARD:
                            O2, D2h symmetry, aug-cc-pVTZ                      
        Integrals generated by Gateway/Seward, Wed Apr 16 15:35:45 2025        

   CASSCF title (first line only):
       O2, 3B3g 6S                                                             

  STATE IRREP:                7
  SPIN MULTIPLICITY:          3
  ACTIVE ELECTRONS:          12
  MAX RAS1 HOLES:             0
  MAX RAS3 ELECTRONS:         0
  NR OF CONFIG:              48

   Specific data for JOBIPH file JOBIPH19
   -------------------------------------

   Header from SEWARD:
                            O2, D2h symmetry, aug-cc-pVTZ                      
        Integrals generated by Gateway/Seward, Wed Apr 16 15:35:45 2025        

   CASSCF title (first line only):
       O2, 5B3g 1S                                                             

  STATE IRREP:                7
  SPIN MULTIPLICITY:          5
  ACTIVE ELECTRONS:          12
  MAX RAS1 HOLES:             0
  MAX RAS3 ELECTRONS:         0
  NR OF CONFIG:               8

   Specific data for JOBIPH file JOBIPH20
   -------------------------------------

   Header from SEWARD:
                            O2, D2h symmetry, aug-cc-pVTZ                      
        Integrals generated by Gateway/Seward, Thu Apr 17 10:45:41 2025        

   CASSCF title (first line only):
       O2, 1Au 5S                                                              

  STATE IRREP:                8
  SPIN MULTIPLICITY:          1
  ACTIVE ELECTRONS:          12
  MAX RAS1 HOLES:             0
  MAX RAS3 ELECTRONS:         0
  NR OF CONFIG:              36

   Specific data for JOBIPH file JOBIPH21
   -------------------------------------

   Header from SEWARD:
                            O2, D2h symmetry, aug-cc-pVTZ                      
        Integrals generated by Gateway/Seward, Wed Apr 16 15:35:45 2025        

   CASSCF title (first line only):
       O2, 3Au 6S                                                              

  STATE IRREP:                8
  SPIN MULTIPLICITY:          3
  ACTIVE ELECTRONS:          12
  MAX RAS1 HOLES:             0
  MAX RAS3 ELECTRONS:         0
  NR OF CONFIG:              48

   Specific data for JOBIPH file JOBIPH22
   -------------------------------------

   Header from SEWARD:
                            O2, D2h symmetry, aug-cc-pVTZ                      
        Integrals generated by Gateway/Seward, Wed Apr 16 15:35:45 2025        

   CASSCF title (first line only):
       O2, 5Au 1S                                                              

  STATE IRREP:                8
  SPIN MULTIPLICITY:          5
  ACTIVE ELECTRONS:          12
  MAX RAS1 HOLES:             0
  MAX RAS3 ELECTRONS:         0
  NR OF CONFIG:              12
 ###############################################################################
 ###############################################################################
 ###                                                                         ###
 ###                                                                         ###
 ###    WARNING: EJOB used when HEFF is available, possible                  ###
 ###    extra interaction between states is ignored!                         ###
 ###                                                                         ###
 ###                                                                         ###
 ###############################################################################
 ###############################################################################

   The following data are common to all the states:
   ------------------------------------------------
   (note: frozen counts as inactive, deleted as secondary)

      Nr of irreps: 8

                 Total     No./Irrep 
      Irrep                  1   2   3   4   5   6   7   8
                            ag b3u b2u b1g b1u b2g b3g  au

      INACTIVE       2       1   0   0   0   1   0   0   0
      ACTIVE         8       2   1   1   0   2   1   1   0
      SECONDARY     82      16  10  10   5  16  10  10   5
      BASIS         92      19  11  11   5  19  11  11   5

      RAS1           0       0   0   0   0   0   0   0   0
      RAS2           8       2   1   1   0   2   1   1   0
      RAS3           0       0   0   0   0   0   0   0   0

        MATRIX ELEMENTS WILL BE COMPUTED FOR THE FOLLOWING ONE-ELECTRON OPERATORS, UNLESS ZERO BY SYMMETRY.
   (Herm=Hermitian, Anti=Antihermitian, Sing=Singlet operator, Trip=Triplet operator)
     MLTPL  0   1 (HERMSING)     MLTPL  1   1 (HERMSING)     MLTPL  1   2 (HERMSING)
     MLTPL  1   3 (HERMSING)     MLTPL  2   1 (HERMSING)     MLTPL  2   2 (HERMSING)
     MLTPL  2   3 (HERMSING)     MLTPL  2   4 (HERMSING)     MLTPL  2   5 (HERMSING)
     MLTPL  2   6 (HERMSING)     VELOCITY   1 (ANTISING)     VELOCITY   2 (ANTISING)
     VELOCITY   3 (ANTISING)     ANGMOM     1 (ANTISING)     ANGMOM     2 (ANTISING)
     ANGMOM     3 (ANTISING)     MLTPV  2   1 (ANTISING)     MLTPV  2   2 (ANTISING)
     MLTPV  2   3 (ANTISING)     MLTPV  2   4 (ANTISING)     MLTPV  2   5 (ANTISING)
     MLTPV  2   6 (ANTISING)

       EIGENSTATES OF A SPIN-FREE HAMILTONIAN WILL BE COMPUTED BASED ON:

  a Hamiltonian matrix assumed to be diagonal with energies read from the wavefunction file(s).

  Nr of states:                   99

   State:        1   2   3   4   5   6   7   8   9  10  11  12  13  14  15  16  17  18  19  20
  JobIph:        1   1   1   1   1   1   1   1   1   1   1   1   2   2   2   3   3   3   4   4
 Root nr:        1   2   3   4   5   6   7   8   9  10  11  12   1   2   3   1   2   3   1   2

   State:       21  22  23  24  25  26  27  28  29  30  31  32  33  34  35  36  37  38  39  40
  JobIph:        4   4   4   5   5   5   5   5   5   6   7   7   7   7   7   8   8   8   8   8
 Root nr:        3   4   5   1   2   3   4   5   6   1   1   2   3   4   5   1   2   3   4   5

   State:       41  42  43  44  45  46  47  48  49  50  51  52  53  54  55  56  57  58  59  60
  JobIph:        8   9  10  10  10  10  10  11  11  11  11  11  11  12  13  13  13  14  14  14
 Root nr:        6   1   1   2   3   4   5   1   2   3   4   5   6   1   1   2   3   1   2   3

   State:       61  62  63  64  65  66  67  68  69  70  71  72  73  74  75  76  77  78  79  80
  JobIph:       14  14  14  15  15  15  15  15  16  16  16  16  16  16  17  18  18  18  18  18
 Root nr:        4   5   6   1   2   3   4   5   1   2   3   4   5   6   1   1   2   3   4   5

   State:       81  82  83  84  85  86  87  88  89  90  91  92  93  94  95  96  97  98  99
  JobIph:       19  19  19  19  19  19  20  21  21  21  21  21  22  22  22  22  22  22  23
 Root nr:        1   2   3   4   5   6   1   1   2   3   4   5   1   2   3   4   5   6   1

  HAMILTONIAN MATRIX FOR THE ORIGINAL STATES:

  Diagonal, with energies
   -149.71223487   -149.69599306   -149.24981817   -149.23834891   -149.18404710
   -149.02654690   -149.02544637   -149.01687255   -148.75816218   -148.72233855
   -148.70223707   -148.69096462   -149.08138409   -149.07783777   -148.86116091
   -149.18328189   -149.17994149   -148.85774835   -149.37711594   -149.24912023
   -149.02804969   -149.00012642   -148.96306204   -149.43381746   -149.29616740
   -149.12716286   -149.08701559   -149.05024188   -149.04313665   -149.14594236
   -149.37711594   -149.24912023   -149.02804969   -149.00012642   -148.96306204
   -149.43381746   -149.29616740   -149.12716286   -149.08701559   -149.05024188
   -149.04313665   -149.14594236   -149.71223487   -149.24981817   -149.02654690
   -148.83039136   -148.78803554   -149.74308510   -149.30981301   -149.13578697
   -149.08138409   -148.87090238   -148.86116091   -149.18328189   -149.37801373
   -149.32950404   -148.86398785   -149.59071051   -149.58721283   -149.22926831
   -149.21603353   -148.93923761   -148.87640098   -149.43840794   -149.24887380
   -149.17741435   -149.14464466   -149.02268430   -149.49130117   -149.29006515
   -149.24559328   -149.24543060   -149.21165509   -149.07128006   -149.35933528
   -149.43840794   -149.24887380   -149.17741435   -149.14464466   -149.02268430
   -149.49130117   -149.29006515   -149.24559328   -149.24543060   -149.21165509
   -149.07128006   -149.35933528   -149.59860343   -149.37801373   -149.14373809
   -148.86398785   -148.80442952   -149.59071051   -149.46491383   -149.22926831
   -149.19845369   -148.89054732   -148.86991730   -149.30916528

      OVERLAP MATRIX FOR THE ORIGINAL STATES:

  Diagonal, with elements
      1.00000000      1.00000000      1.00000000      1.00000000      1.00000000
      1.00000000      1.00000000      1.00000000      1.00000000      1.00000000
      1.00000000      1.00000000      1.00000000      1.00000000      1.00000000
      1.00000000      1.00000000      1.00000000      1.00000000      1.00000000
      1.00000000      1.00000000      1.00000000      1.00000000      1.00000000
      1.00000000      1.00000000      1.00000000      1.00000000      1.00000000
      1.00000000      1.00000000      1.00000000      1.00000000      1.00000000
      1.00000000      1.00000000      1.00000000      1.00000000      1.00000000
      1.00000000      1.00000000      1.00000000      1.00000000      1.00000000
      1.00000000      1.00000000      1.00000000      1.00000000      1.00000000
      1.00000000      1.00000000      1.00000000      1.00000000      1.00000000
      1.00000000      1.00000000      1.00000000      1.00000000      1.00000000
      1.00000000      1.00000000      1.00000000      1.00000000      1.00000000
      1.00000000      1.00000000      1.00000000      1.00000000      1.00000000
      1.00000000      1.00000000      1.00000000      1.00000000      1.00000000
      1.00000000      1.00000000      1.00000000      1.00000000      1.00000000
      1.00000000      1.00000000      1.00000000      1.00000000      1.00000000
      1.00000000      1.00000000      1.00000000      1.00000000      1.00000000
      1.00000000      1.00000000      1.00000000      1.00000000      1.00000000
      1.00000000      1.00000000      1.00000000      1.00000000

::    RASSI State    1     Total energy:    -149.71223486945811
::    RASSI State    2     Total energy:    -149.69599306118351
::    RASSI State    3     Total energy:    -149.24981817457794
::    RASSI State    4     Total energy:    -149.23834891003577
::    RASSI State    5     Total energy:    -149.18404709709429
::    RASSI State    6     Total energy:    -149.02654689829524
::    RASSI State    7     Total energy:    -149.02544637175822
::    RASSI State    8     Total energy:    -149.01687254931068
::    RASSI State    9     Total energy:    -148.75816218447602
::    RASSI State   10     Total energy:    -148.72233855437148
::    RASSI State   11     Total energy:    -148.70223706701020
::    RASSI State   12     Total energy:    -148.69096461977227
::    RASSI State   13     Total energy:    -149.08138409307367
::    RASSI State   14     Total energy:    -149.07783777038634
::    RASSI State   15     Total energy:    -148.86116091077426
::    RASSI State   16     Total energy:    -149.18328189327963
::    RASSI State   17     Total energy:    -149.17994148575360
::    RASSI State   18     Total energy:    -148.85774834942680
::    RASSI State   19     Total energy:    -149.37711594010116
::    RASSI State   20     Total energy:    -149.24912022821005
::    RASSI State   21     Total energy:    -149.02804968997390
::    RASSI State   22     Total energy:    -149.00012641542386
::    RASSI State   23     Total energy:    -148.96306203665972
::    RASSI State   24     Total energy:    -149.43381746136154
::    RASSI State   25     Total energy:    -149.29616739608662
::    RASSI State   26     Total energy:    -149.12716286174211
::    RASSI State   27     Total energy:    -149.08701559478715
::    RASSI State   28     Total energy:    -149.05024187866820
::    RASSI State   29     Total energy:    -149.04313664931615
::    RASSI State   30     Total energy:    -149.14594236110480
::    RASSI State   31     Total energy:    -149.37711594010122
::    RASSI State   32     Total energy:    -149.24912022820999
::    RASSI State   33     Total energy:    -149.02804968997390
::    RASSI State   34     Total energy:    -149.00012641542389
::    RASSI State   35     Total energy:    -148.96306203665972
::    RASSI State   36     Total energy:    -149.43381746136146
::    RASSI State   37     Total energy:    -149.29616739608662
::    RASSI State   38     Total energy:    -149.12716286174205
::    RASSI State   39     Total energy:    -149.08701559478720
::    RASSI State   40     Total energy:    -149.05024187866846
::    RASSI State   41     Total energy:    -149.04313664931624
::    RASSI State   42     Total energy:    -149.14594236110480
::    RASSI State   43     Total energy:    -149.71223486945823
::    RASSI State   44     Total energy:    -149.24981817457800
::    RASSI State   45     Total energy:    -149.02654689829521
::    RASSI State   46     Total energy:    -148.83039135532098
::    RASSI State   47     Total energy:    -148.78803554099602
::    RASSI State   48     Total energy:    -149.74308509865716
::    RASSI State   49     Total energy:    -149.30981301127207
::    RASSI State   50     Total energy:    -149.13578697339412
::    RASSI State   51     Total energy:    -149.08138409307369
::    RASSI State   52     Total energy:    -148.87090238222754
::    RASSI State   53     Total energy:    -148.86116091077426
::    RASSI State   54     Total energy:    -149.18328189327960
::    RASSI State   55     Total energy:    -149.37801372908325
::    RASSI State   56     Total energy:    -149.32950403609777
::    RASSI State   57     Total energy:    -148.86398785339927
::    RASSI State   58     Total energy:    -149.59071051094602
::    RASSI State   59     Total energy:    -149.58721282927769
::    RASSI State   60     Total energy:    -149.22926831311941
::    RASSI State   61     Total energy:    -149.21603352625840
::    RASSI State   62     Total energy:    -148.93923760785296
::    RASSI State   63     Total energy:    -148.87640097505300
::    RASSI State   64     Total energy:    -149.43840793819516
::    RASSI State   65     Total energy:    -149.24887380482105
::    RASSI State   66     Total energy:    -149.17741434615414
::    RASSI State   67     Total energy:    -149.14464466161144
::    RASSI State   68     Total energy:    -149.02268429595787
::    RASSI State   69     Total energy:    -149.49130117464466
::    RASSI State   70     Total energy:    -149.29006515192009
::    RASSI State   71     Total energy:    -149.24559328296030
::    RASSI State   72     Total energy:    -149.24543059796437
::    RASSI State   73     Total energy:    -149.21165509340773
::    RASSI State   74     Total energy:    -149.07128006416954
::    RASSI State   75     Total energy:    -149.35933528462894
::    RASSI State   76     Total energy:    -149.43840793819507
::    RASSI State   77     Total energy:    -149.24887380482102
::    RASSI State   78     Total energy:    -149.17741434615434
::    RASSI State   79     Total energy:    -149.14464466161158
::    RASSI State   80     Total energy:    -149.02268429595796
::    RASSI State   81     Total energy:    -149.49130117464475
::    RASSI State   82     Total energy:    -149.29006515192017
::    RASSI State   83     Total energy:    -149.24559328296016
::    RASSI State   84     Total energy:    -149.24543059796446
::    RASSI State   85     Total energy:    -149.21165509340776
::    RASSI State   86     Total energy:    -149.07128006416954
::    RASSI State   87     Total energy:    -149.35933528462894
::    RASSI State   88     Total energy:    -149.59860343080604
::    RASSI State   89     Total energy:    -149.37801372908328
::    RASSI State   90     Total energy:    -149.14373808592748
::    RASSI State   91     Total energy:    -148.86398785339932
::    RASSI State   92     Total energy:    -148.80442951804707
::    RASSI State   93     Total energy:    -149.59071051094594
::    RASSI State   94     Total energy:    -149.46491382829174
::    RASSI State   95     Total energy:    -149.22926831311941
::    RASSI State   96     Total energy:    -149.19845368766823
::    RASSI State   97     Total energy:    -148.89054732108232
::    RASSI State   98     Total energy:    -148.86991730350317
::    RASSI State   99     Total energy:    -149.30916527581434



      ****************************************************************************************************
      *                                                                                                  *
      *                                         Spin-free section                                        *
      *                                                                                                  *
      *                 Note: index according to input order, order according to energy.                 *
      *                                                                                                  *
      ****************************************************************************************************



  SPIN-FREE ENERGIES:
  (Shifted by EMIN (a.u.) =       -149.7430850987)

 SF State       Relative EMIN(au)   Rel lowest level(eV)    D:o, cm**(-1)      L_eff   Abs_M

    48             0.0000000000        0.0000000000              0.0000         1.6     0.0
    43             0.0308502292        0.8394775025           6770.8427         2.4     2.0
     1             0.0308502292        0.8394775025           6770.8427         2.4     2.0
     2             0.0470920375        1.2814396208          10335.5076         1.6     0.0
    88             0.1444816679        3.9315464694          31710.0608         1.2     0.0
    58             0.1523745877        4.1463237603          33442.3565         2.2     2.0
    93             0.1523745877        4.1463237603          33442.3565         2.2     2.0
    59             0.1558722694        4.2415005271          34210.0089         1.2     0.0
    81             0.2517839240        6.8513896068          55260.1839         1.5     1.0
    69             0.2517839240        6.8513896068          55260.1839         1.5     1.0
    94             0.2781712704        7.5694258804          61051.5370         1.5     0.0
    64             0.3046771605        8.2906878937          66868.9075         2.6     1.0
    76             0.3046771605        8.2906878937          66868.9075         2.6     1.0
    24             0.3092676373        8.4156011318          67876.4007         1.9     1.0
    36             0.3092676373        8.4156011318          67876.4007         1.9     1.0
    89             0.3650713696        9.9340980448          80123.9043         2.2     2.0
    55             0.3650713696        9.9340980448          80123.9043         2.2     2.0
    31             0.3659691586        9.9585281276          80320.9462         1.6     1.0
    19             0.3659691586        9.9585281276          80320.9462         1.6     1.0
    75             0.3837498140       10.4423644113          84223.3490         1.5     1.0
    87             0.3837498140       10.4423644113          84223.3490         1.5     1.0
    56             0.4135810626       11.2541140373          90770.5512         0.7     0.0
    49             0.4332720874       11.7899341194          95092.2317         0.7     0.0
    99             0.4339198228       11.8075598992          95234.3932         0.3     0.0
    25             0.4469177026       12.1612502248          98087.0980         1.9     1.0
    37             0.4469177026       12.1612502248          98087.0980         1.9     1.0
    82             0.4530199467       12.3273007478          99426.3858         1.5     1.0
    70             0.4530199467       12.3273007478          99426.3858         1.5     1.0
    44             0.4932669241       13.4224767935         108259.5763         1.9     2.0
     3             0.4932669241       13.4224767935         108259.5763         1.9     2.0
    20             0.4939648704       13.4414688817         108412.7578         1.4     1.0
    32             0.4939648704       13.4414688817         108412.7578         1.4     1.0
    65             0.4942112938       13.4481744037         108466.8415         1.8     1.0
    77             0.4942112938       13.4481744037         108466.8415         1.8     1.0
    71             0.4974918157       13.5374419511         109186.8329         1.4     1.0
    83             0.4974918157       13.5374419511         109186.8329         1.4     1.0
    84             0.4976545007       13.5418688354         109222.5381         2.9     3.0
    72             0.4976545007       13.5418688354         109222.5381         2.9     3.0
     4             0.5047361886       13.7345713809         110776.7889         1.7     0.0
    60             0.5138167855       13.9816670109         112769.7496         2.0     2.0
    95             0.5138167855       13.9816670109         112769.7496         2.0     2.0
    61             0.5270515724       14.3418039081         115674.4496         1.0     0.0
    85             0.5314300052       14.4609471355         116635.4045         1.3     1.0
    73             0.5314300052       14.4609471355         116635.4045         1.3     1.0
    96             0.5446314110       14.8201756861         119532.7782         1.4     0.0
     5             0.5590380016       15.2121989867         122694.6593         1.2     0.0
    16             0.5598032054       15.2330212433         122862.6021         1.9     2.0
    54             0.5598032054       15.2330212433         122862.6021         1.9     2.0
    17             0.5631436129       15.3239183627         123595.7368         0.8     0.0
    78             0.5656707525       15.3926853344         124150.3799         3.1     3.0
    66             0.5656707525       15.3926853344         124150.3799         3.1     3.0
    30             0.5971427376       16.2490816755         131057.6822         0.7     1.0
    42             0.5971427376       16.2490816755         131057.6822         0.7     1.0
    79             0.5984404370       16.2843938777         131342.4943         1.8     1.0
    67             0.5984404370       16.2843938777         131342.4943         1.8     1.0
    90             0.5993470127       16.3090630588         131541.4647         1.9     0.0
    50             0.6072981253       16.5254238530         133286.5322         1.1     0.0
    26             0.6159222369       16.7600978862         135179.3059         1.4     1.0
    38             0.6159222369       16.7600978862         135179.3059         1.4     1.0
    39             0.6560695039       17.8525606740         143990.6125         1.1     1.0
    27             0.6560695039       17.8525606740         143990.6125         1.1     1.0
    51             0.6617010056       18.0058016423         145226.5843         2.3     2.0
    13             0.6617010056       18.0058016423         145226.5843         2.3     2.0
    14             0.6652473283       18.1023019987         146004.9121         1.5     0.0
    74             0.6718050345       18.2807462754         147444.1623         0.8     1.0
    86             0.6718050345       18.2807462754         147444.1623         0.8     1.0
    40             0.6928432200       18.8532244670         152061.5103         2.7     3.0
    28             0.6928432200       18.8532244670         152061.5103         2.7     3.0
    41             0.6999484493       19.0465676073         153620.9279         1.1     1.0
    29             0.6999484493       19.0465676073         153620.9279         1.1     1.0
    33             0.7150354087       19.4571046852         156932.1327         1.3     1.0
    21             0.7150354087       19.4571046852         156932.1327         1.3     1.0
     6             0.7165382004       19.4979977300         157261.9574         2.4     2.0
    45             0.7165382004       19.4979977300         157261.9574         2.4     2.0
     7             0.7176387269       19.5279445827         157503.4950         1.4     0.0
    80             0.7204008027       19.6031044942         158109.7006         1.3     1.0
    68             0.7204008027       19.6031044942         158109.7006         1.3     1.0
     8             0.7262125493       19.7612501769         159385.2316         1.3     0.0
    34             0.7429586832       20.2169356943         163060.5831         0.9     1.0
    22             0.7429586832       20.2169356943         163060.5831         0.9     1.0
    23             0.7800230620       21.2255088208         171195.2740         2.7     3.0
    35             0.7800230620       21.2255088208         171195.2740         2.7     3.0
    62             0.8038474908       21.8738045551         176424.1317         0.8     0.0
    97             0.8525377776       23.1987347549         187110.4145         0.5     0.0
    63             0.8666841236       23.5836764407         190215.1785         1.5     0.0
    52             0.8721827164       23.7333007738         191421.9802         1.1     0.0
    98             0.8731677952       23.7601061315         191638.1800         0.7     0.0
    91             0.8790972453       23.9214546885         192939.5438         1.8     2.0
    57             0.8790972453       23.9214546885         192939.5438         1.8     2.0
    53             0.8819241879       23.9983797162         193559.9860         2.0     2.0
    15             0.8819241879       23.9983797162         193559.9860         2.0     2.0
    18             0.8853367492       24.0912402411         194308.9567         0.7     0.0
    46             0.9126937433       24.8356619742         200313.1229         0.4     0.0
    92             0.9386555806       25.5421195559         206011.0875         0.7     0.0
    47             0.9550495577       25.9882223976         209609.1496         1.3     0.0
     9             0.9849229142       26.8011178403         216165.5935         0.7     0.0
    10             1.0207465443       27.7759284758         224027.9715         0.6     0.0
    11             1.0408480316       28.3229178125         228439.7381         0.4     0.0
    12             1.0521204789       28.6296567282         230913.7543         0.7     0.0

++ Dipole transition strengths (spin-free states):
   -----------------------------------------------
     for osc. strength at least  1.00000000E-05

      From   To        Osc. strength     Einstein coefficients Ax, Ay, Az (sec-1)    Total A (sec-1)
     -----------------------------------------------------------------------------------------------
        48   94       6.85945560E-02  0.00000000E+00  0.00000000E+00  1.70539537E+08  1.70539537E+08
        48   24       6.65447046E-04  0.00000000E+00  2.04500012E+06  0.00000000E+00  2.04500012E+06
        48   36       6.65447046E-04  2.04500012E+06  0.00000000E+00  0.00000000E+00  2.04500012E+06
        48   25       6.31219608E-03  0.00000000E+00  4.05085296E+07  0.00000000E+00  4.05085296E+07
        48   37       6.31219608E-03  4.05085296E+07  0.00000000E+00  0.00000000E+00  4.05085296E+07
        48   96       1.91531982E-03  0.00000000E+00  0.00000000E+00  1.82539794E+07  1.82539794E+07
        48   26       1.29780378E-01  0.00000000E+00  1.58187326E+09  0.00000000E+00  1.58187326E+09
        48   38       1.29780378E-01  1.58187326E+09  0.00000000E+00  0.00000000E+00  1.58187326E+09
        48   39       5.41827328E-03  7.49327188E+07  0.00000000E+00  0.00000000E+00  7.49327188E+07
        48   27       5.41827328E-03  0.00000000E+00  7.49327188E+07  0.00000000E+00  7.49327188E+07
        48   41       6.69867181E-04  1.05446385E+07  0.00000000E+00  0.00000000E+00  1.05446385E+07
        48   29       6.69867181E-04  0.00000000E+00  1.05446385E+07  0.00000000E+00  1.05446385E+07
        48   97       1.10005899E+00  0.00000000E+00  0.00000000E+00  2.56894096E+10  2.56894096E+10
        43   89       5.40388646E-02  0.00000000E+00  0.00000000E+00  1.93947833E+08  1.93947833E+08
        43   31       1.56447147E-03  5.64516252E+06  0.00000000E+00  0.00000000E+00  5.64516252E+06
        43   19       1.56447147E-03  0.00000000E+00  5.64516252E+06  0.00000000E+00  5.64516252E+06
        43   20       1.92640405E-02  0.00000000E+00  1.32750232E+08  0.00000000E+00  1.32750232E+08
        43   32       1.92640405E-02  1.32750232E+08  0.00000000E+00  0.00000000E+00  1.32750232E+08
        43   33       2.03644507E-02  3.06288653E+08  0.00000000E+00  0.00000000E+00  3.06288653E+08
        43   21       2.03644507E-02  0.00000000E+00  3.06288653E+08  0.00000000E+00  3.06288653E+08
        43   34       8.48445175E-02  1.38237844E+09  0.00000000E+00  0.00000000E+00  1.38237844E+09
        43   22       8.48445175E-02  0.00000000E+00  1.38237844E+09  0.00000000E+00  1.38237844E+09
        43   23       1.34234481E-04  0.00000000E+00  2.42068909E+06  0.00000000E+00  2.42068909E+06
        43   35       1.34234481E-04  2.42068909E+06  0.00000000E+00  0.00000000E+00  2.42068909E+06
        43   91       1.16010709E+00  0.00000000E+00  0.00000000E+00  2.68196833E+10  2.68196833E+10
         1   55       5.40388646E-02  0.00000000E+00  0.00000000E+00  1.93947833E+08  1.93947833E+08
         1   31       1.56447147E-03  0.00000000E+00  5.64516252E+06  0.00000000E+00  5.64516252E+06
         1   19       1.56447147E-03  5.64516252E+06  0.00000000E+00  0.00000000E+00  5.64516252E+06
         1   20       1.92640405E-02  1.32750232E+08  0.00000000E+00  0.00000000E+00  1.32750232E+08
         1   32       1.92640405E-02  0.00000000E+00  1.32750232E+08  0.00000000E+00  1.32750232E+08
         1   33       2.03644507E-02  0.00000000E+00  3.06288653E+08  0.00000000E+00  3.06288653E+08
         1   21       2.03644507E-02  3.06288653E+08  0.00000000E+00  0.00000000E+00  3.06288653E+08
         1   34       8.48445175E-02  0.00000000E+00  1.38237844E+09  0.00000000E+00  1.38237844E+09
         1   22       8.48445175E-02  1.38237844E+09  0.00000000E+00  0.00000000E+00  1.38237844E+09
         1   23       1.34234481E-04  2.42068909E+06  0.00000000E+00  0.00000000E+00  2.42068909E+06
         1   35       1.34234481E-04  0.00000000E+00  2.42068909E+06  0.00000000E+00  2.42068909E+06
         1   57       1.16010709E+00  0.00000000E+00  0.00000000E+00  2.68196833E+10  2.68196833E+10
         2   31       4.83293557E-03  0.00000000E+00  1.57895084E+07  0.00000000E+00  1.57895084E+07
         2   19       4.83293557E-03  1.57895084E+07  0.00000000E+00  0.00000000E+00  1.57895084E+07
         2   56       4.83080046E-02  0.00000000E+00  0.00000000E+00  2.08474015E+08  2.08474015E+08
         2   20       1.85896043E-02  1.19274865E+08  0.00000000E+00  0.00000000E+00  1.19274865E+08
         2   32       1.85896043E-02  0.00000000E+00  1.19274865E+08  0.00000000E+00  1.19274865E+08
         2   33       1.33813013E-02  0.00000000E+00  1.91817629E+08  0.00000000E+00  1.91817629E+08
         2   21       1.33813013E-02  1.91817629E+08  0.00000000E+00  0.00000000E+00  1.91817629E+08
         2   34       6.73533519E-02  0.00000000E+00  1.04790554E+09  0.00000000E+00  1.04790554E+09
         2   22       6.73533519E-02  1.04790554E+09  0.00000000E+00  0.00000000E+00  1.04790554E+09
        88   64       4.15134517E-03  0.00000000E+00  3.42294808E+06  0.00000000E+00  3.42294808E+06
        88   76       4.15134517E-03  3.42294808E+06  0.00000000E+00  0.00000000E+00  3.42294808E+06
        88   65       2.03168192E-03  0.00000000E+00  7.98420070E+06  0.00000000E+00  7.98420070E+06
        88   77       2.03168192E-03  7.98420070E+06  0.00000000E+00  0.00000000E+00  7.98420070E+06
        88   79       1.42018760E-03  9.40349764E+06  0.00000000E+00  0.00000000E+00  9.40349764E+06
        88   67       1.42018760E-03  0.00000000E+00  9.40349764E+06  0.00000000E+00  9.40349764E+06
        88   80       3.40253494E-03  3.62607258E+07  0.00000000E+00  0.00000000E+00  3.62607258E+07
        88   68       3.40253494E-03  0.00000000E+00  3.62607258E+07  0.00000000E+00  3.62607258E+07
        88   46       1.60187374E-01  0.00000000E+00  0.00000000E+00  3.03739605E+09  3.03739605E+09
        88   47       7.83593677E-01  0.00000000E+00  0.00000000E+00  1.65417174E+10  1.65417174E+10
        58   81       1.91217518E-03  0.00000000E+00  6.07145678E+05  0.00000000E+00  6.07145678E+05
        58   69       1.91217518E-03  6.07145678E+05  0.00000000E+00  0.00000000E+00  6.07145678E+05
        58   82       2.53043404E-04  0.00000000E+00  7.34877436E+05  0.00000000E+00  7.34877436E+05
        58   70       2.53043404E-04  7.34877436E+05  0.00000000E+00  0.00000000E+00  7.34877436E+05
        58   71       1.73111113E-03  6.62474414E+06  0.00000000E+00  0.00000000E+00  6.62474414E+06
        58   83       1.73111113E-03  0.00000000E+00  6.62474414E+06  0.00000000E+00  6.62474414E+06
        58   84       7.63596520E-04  0.00000000E+00  2.92494329E+06  0.00000000E+00  2.92494329E+06
        58   72       7.63596520E-04  2.92494329E+06  0.00000000E+00  0.00000000E+00  2.92494329E+06
        58   85       5.69990301E-04  0.00000000E+00  2.63138118E+06  0.00000000E+00  2.63138118E+06
        58   73       5.69990301E-04  2.63138118E+06  0.00000000E+00  0.00000000E+00  2.63138118E+06
        58   13       2.45692144E-03  0.00000000E+00  0.00000000E+00  2.04783310E+07  2.04783310E+07
        58   74       7.61319655E-04  6.59982972E+06  0.00000000E+00  0.00000000E+00  6.59982972E+06
        58   86       7.61319655E-04  0.00000000E+00  6.59982972E+06  0.00000000E+00  6.59982972E+06
        58   15       5.76113129E-02  0.00000000E+00  0.00000000E+00  9.85208847E+08  9.85208847E+08
        93   81       1.91217518E-03  6.07145678E+05  0.00000000E+00  0.00000000E+00  6.07145678E+05
        93   69       1.91217518E-03  0.00000000E+00  6.07145678E+05  0.00000000E+00  6.07145678E+05
        93   82       2.53043404E-04  7.34877436E+05  0.00000000E+00  0.00000000E+00  7.34877436E+05
        93   70       2.53043404E-04  0.00000000E+00  7.34877436E+05  0.00000000E+00  7.34877436E+05
        93   71       1.73111113E-03  0.00000000E+00  6.62474414E+06  0.00000000E+00  6.62474414E+06
        93   83       1.73111113E-03  6.62474414E+06  0.00000000E+00  0.00000000E+00  6.62474414E+06
        93   84       7.63596520E-04  2.92494329E+06  0.00000000E+00  0.00000000E+00  2.92494329E+06
        93   72       7.63596520E-04  0.00000000E+00  2.92494329E+06  0.00000000E+00  2.92494329E+06
        93   85       5.69990301E-04  2.63138118E+06  0.00000000E+00  0.00000000E+00  2.63138118E+06
        93   73       5.69990301E-04  0.00000000E+00  2.63138118E+06  0.00000000E+00  2.63138118E+06
        93   51       2.45692144E-03  0.00000000E+00  0.00000000E+00  2.04783310E+07  2.04783310E+07
        93   74       7.61319655E-04  0.00000000E+00  6.59982972E+06  0.00000000E+00  6.59982972E+06
        93   86       7.61319655E-04  6.59982972E+06  0.00000000E+00  0.00000000E+00  6.59982972E+06
        93   53       5.76113129E-02  0.00000000E+00  0.00000000E+00  9.85208847E+08  9.85208847E+08
        59   81       1.88640674E-03  0.00000000E+00  5.57556636E+05  0.00000000E+00  5.57556636E+05
        59   69       1.88640674E-03  5.57556636E+05  0.00000000E+00  0.00000000E+00  5.57556636E+05
        59   82       1.34807431E-03  0.00000000E+00  3.82445359E+06  0.00000000E+00  3.82445359E+06
        59   70       1.34807431E-03  3.82445359E+06  0.00000000E+00  0.00000000E+00  3.82445359E+06
        59   71       2.42100500E-03  9.07803793E+06  0.00000000E+00  0.00000000E+00  9.07803793E+06
        59   83       2.42100500E-03  0.00000000E+00  9.07803793E+06  0.00000000E+00  9.07803793E+06
        59   85       1.51424441E-05  0.00000000E+00  6.86215123E+04  0.00000000E+00  6.86215123E+04
        59   73       1.51424441E-05  6.86215123E+04  0.00000000E+00  0.00000000E+00  6.86215123E+04
        59   14       2.35697668E-03  0.00000000E+00  0.00000000E+00  1.96490484E+07  1.96490484E+07
        59   74       1.12376531E-03  9.61109173E+06  0.00000000E+00  0.00000000E+00  9.61109173E+06
        59   86       1.12376531E-03  0.00000000E+00  9.61109174E+06  0.00000000E+00  9.61109174E+06
        81   94       9.90542614E-05  2.21602922E+03  0.00000000E+00  0.00000000E+00  2.21602922E+03
        81   36       3.67876535E-05  0.00000000E+00  0.00000000E+00  3.90573344E+03  3.90573344E+03
        81   37       2.66765145E-02  0.00000000E+00  0.00000000E+00  3.26365976E+07  3.26365976E+07
        81   60       7.28938962E-04  0.00000000E+00  1.60810190E+06  0.00000000E+00  1.60810190E+06
        81   95       7.28938962E-04  1.60810190E+06  0.00000000E+00  0.00000000E+00  1.60810190E+06
        81   61       1.44456587E-04  0.00000000E+00  3.51688832E+05  0.00000000E+00  3.51688832E+05
        81   96       3.08299619E-03  8.49506830E+06  0.00000000E+00  0.00000000E+00  8.49506830E+06
        81   38       1.06904949E-01  0.00000000E+00  0.00000000E+00  4.55450776E+08  4.55450776E+08
        81   39       6.25764093E-03  0.00000000E+00  0.00000000E+00  3.28623052E+07  3.28623052E+07
        81   41       9.08149491E-05  0.00000000E+00  0.00000000E+00  5.86061484E+05  5.86061484E+05
        81   97       1.75805456E-03  2.03862039E+07  0.00000000E+00  0.00000000E+00  2.03862039E+07
        81   63       1.69844198E-01  0.00000000E+00  2.06334032E+09  0.00000000E+00  2.06334032E+09
        69   94       9.90542614E-05  0.00000000E+00  2.21602922E+03  0.00000000E+00  2.21602922E+03
        69   24       3.67876535E-05  0.00000000E+00  0.00000000E+00  3.90573344E+03  3.90573344E+03
        69   25       2.66765145E-02  0.00000000E+00  0.00000000E+00  3.26365976E+07  3.26365976E+07
        69   60       7.28938962E-04  1.60810190E+06  0.00000000E+00  0.00000000E+00  1.60810190E+06
        69   95       7.28938962E-04  0.00000000E+00  1.60810190E+06  0.00000000E+00  1.60810190E+06
        69   61       1.44456587E-04  3.51688832E+05  0.00000000E+00  0.00000000E+00  3.51688832E+05
        69   96       3.08299619E-03  0.00000000E+00  8.49506830E+06  0.00000000E+00  8.49506830E+06
        69   26       1.06904949E-01  0.00000000E+00  0.00000000E+00  4.55450776E+08  4.55450776E+08
        69   27       6.25764093E-03  0.00000000E+00  0.00000000E+00  3.28623052E+07  3.28623052E+07
        69   29       9.08149491E-05  0.00000000E+00  0.00000000E+00  5.86061484E+05  5.86061484E+05
        69   97       1.75805456E-03  0.00000000E+00  2.03862039E+07  0.00000000E+00  2.03862039E+07
        69   63       1.69844198E-01  2.06334032E+09  0.00000000E+00  0.00000000E+00  2.06334032E+09
        94   49       9.73356619E-02  0.00000000E+00  0.00000000E+00  7.52334608E+07  7.52334608E+07
        94   82       1.45037782E-05  1.42467805E+04  0.00000000E+00  0.00000000E+00  1.42467805E+04
        94   70       1.45037782E-05  0.00000000E+00  1.42467805E+04  0.00000000E+00  1.42467805E+04
        94   71       1.19406969E-04  0.00000000E+00  1.84543687E+05  0.00000000E+00  1.84543687E+05
        94   83       1.19406969E-04  1.84543687E+05  0.00000000E+00  0.00000000E+00  1.84543687E+05
        94   85       7.72422994E-05  1.59182361E+05  0.00000000E+00  0.00000000E+00  1.59182361E+05
        94   73       7.72422994E-05  0.00000000E+00  1.59182361E+05  0.00000000E+00  1.59182361E+05
        94   50       1.48738697E-03  0.00000000E+00  0.00000000E+00  5.17680129E+06  5.17680129E+06
        94   74       9.58278968E-05  0.00000000E+00  4.77075952E+05  0.00000000E+00  4.77075952E+05
        94   86       9.58278968E-05  4.77075952E+05  0.00000000E+00  0.00000000E+00  4.77075952E+05
        94   52       4.45900639E-03  0.00000000E+00  0.00000000E+00  5.05520306E+07  5.05520306E+07
        64   89       7.53534929E-05  0.00000000E+00  8.83089798E+03  0.00000000E+00  8.83089798E+03
        64   55       7.53534929E-05  8.83089798E+03  0.00000000E+00  0.00000000E+00  8.83089798E+03
        64   56       1.19882816E-05  4.56830088E+03  0.00000000E+00  0.00000000E+00  4.56830088E+03
        64   20       2.29655179E-02  0.00000000E+00  0.00000000E+00  2.64382048E+07  2.64382048E+07
        64   90       4.34508698E-03  0.00000000E+00  1.21221811E+07  0.00000000E+00  1.21221811E+07
        64   21       1.08627574E-02  0.00000000E+00  0.00000000E+00  5.87729240E+07  5.87729240E+07
        64   22       5.51592161E-02  0.00000000E+00  0.00000000E+00  3.40435854E+08  3.40435854E+08
        64   91       1.19909142E-03  0.00000000E+00  1.27122496E+07  0.00000000E+00  1.27122496E+07
        64   57       1.19909142E-03  1.27122496E+07  0.00000000E+00  0.00000000E+00  1.27122496E+07
        64   92       3.60018488E-05  0.00000000E+00  4.64926860E+05  0.00000000E+00  4.64926860E+05
        76   89       7.53534929E-05  8.83089798E+03  0.00000000E+00  0.00000000E+00  8.83089798E+03
        76   55       7.53534929E-05  0.00000000E+00  8.83089798E+03  0.00000000E+00  8.83089798E+03
        76   56       1.19882816E-05  0.00000000E+00  4.56830088E+03  0.00000000E+00  4.56830088E+03
        76   32       2.29655179E-02  0.00000000E+00  0.00000000E+00  2.64382048E+07  2.64382048E+07
        76   90       4.34508698E-03  1.21221811E+07  0.00000000E+00  0.00000000E+00  1.21221811E+07
        76   33       1.08627574E-02  0.00000000E+00  0.00000000E+00  5.87729240E+07  5.87729240E+07
        76   34       5.51592161E-02  0.00000000E+00  0.00000000E+00  3.40435854E+08  3.40435854E+08
        76   91       1.19909142E-03  1.27122496E+07  0.00000000E+00  0.00000000E+00  1.27122496E+07
        76   57       1.19909142E-03  0.00000000E+00  1.27122496E+07  0.00000000E+00  1.27122496E+07
        76   92       3.60018488E-05  4.64926860E+05  0.00000000E+00  0.00000000E+00  4.64926860E+05
        24   49       3.12399469E-05  0.00000000E+00  1.54346118E+04  0.00000000E+00  1.54346118E+04
        24   70       4.58640358E-03  0.00000000E+00  0.00000000E+00  3.04517890E+06  3.04517890E+06
        24   73       1.71631098E-03  0.00000000E+00  0.00000000E+00  2.72174764E+06  2.72174764E+06
        24   50       1.21033080E-03  0.00000000E+00  3.45411154E+06  0.00000000E+00  3.45411154E+06
        24   51       6.41202896E-04  0.00000000E+00  2.55894174E+06  0.00000000E+00  2.55894174E+06
        24   13       6.41202896E-04  2.55894174E+06  0.00000000E+00  0.00000000E+00  2.55894174E+06
        24   14       1.70658953E-04  6.94848946E+05  0.00000000E+00  0.00000000E+00  6.94848946E+05
        24   74       1.28416610E-01  0.00000000E+00  0.00000000E+00  5.42297634E+08  5.42297634E+08
        24   52       4.56915570E-02  0.00000000E+00  4.65192394E+08  0.00000000E+00  4.65192394E+08
        24   53       4.30909755E-02  0.00000000E+00  4.54031176E+08  0.00000000E+00  4.54031176E+08
        24   15       4.30909755E-02  4.54031176E+08  0.00000000E+00  0.00000000E+00  4.54031176E+08
        36   49       3.12399469E-05  1.54346118E+04  0.00000000E+00  0.00000000E+00  1.54346118E+04
        36   82       4.58640358E-03  0.00000000E+00  0.00000000E+00  3.04517890E+06  3.04517890E+06
        36   85       1.71631098E-03  0.00000000E+00  0.00000000E+00  2.72174764E+06  2.72174764E+06
        36   50       1.21033080E-03  3.45411154E+06  0.00000000E+00  0.00000000E+00  3.45411154E+06
        36   51       6.41202896E-04  2.55894174E+06  0.00000000E+00  0.00000000E+00  2.55894174E+06
        36   13       6.41202896E-04  0.00000000E+00  2.55894174E+06  0.00000000E+00  2.55894174E+06
        36   14       1.70658953E-04  0.00000000E+00  6.94848946E+05  0.00000000E+00  6.94848946E+05
        36   86       1.28416610E-01  0.00000000E+00  0.00000000E+00  5.42297634E+08  5.42297634E+08
        36   52       4.56915570E-02  4.65192394E+08  0.00000000E+00  0.00000000E+00  4.65192394E+08
        36   53       4.30909755E-02  4.54031176E+08  0.00000000E+00  0.00000000E+00  4.54031176E+08
        36   15       4.30909755E-02  0.00000000E+00  4.54031176E+08  0.00000000E+00  4.54031176E+08
        89   44       8.90530486E-02  0.00000000E+00  0.00000000E+00  4.70224881E+07  4.70224881E+07
        89   78       1.24468946E-04  1.60927803E+05  0.00000000E+00  0.00000000E+00  1.60927803E+05
        89   66       1.24468946E-04  0.00000000E+00  1.60927803E+05  0.00000000E+00  1.60927803E+05
        89   79       3.00667537E-05  5.26119022E+04  0.00000000E+00  0.00000000E+00  5.26119022E+04
        89   67       3.00667537E-05  0.00000000E+00  5.26119022E+04  0.00000000E+00  5.26119022E+04
        89   45       2.37018294E-03  0.00000000E+00  0.00000000E+00  9.40722305E+06  9.40722305E+06
        89   80       1.01328227E-03  4.11058558E+06  0.00000000E+00  0.00000000E+00  4.11058558E+06
        89   68       1.01328227E-03  0.00000000E+00  4.11058558E+06  0.00000000E+00  4.11058558E+06
        55    3       8.90530486E-02  0.00000000E+00  0.00000000E+00  4.70224881E+07  4.70224881E+07
        55   78       1.24468946E-04  0.00000000E+00  1.60927803E+05  0.00000000E+00  1.60927803E+05
        55   66       1.24468946E-04  1.60927803E+05  0.00000000E+00  0.00000000E+00  1.60927803E+05
        55   79       3.00667537E-05  0.00000000E+00  5.26119022E+04  0.00000000E+00  5.26119022E+04
        55   67       3.00667537E-05  5.26119022E+04  0.00000000E+00  0.00000000E+00  5.26119022E+04
        55    6       2.37018294E-03  0.00000000E+00  0.00000000E+00  9.40722305E+06  9.40722305E+06
        55   80       1.01328227E-03  0.00000000E+00  4.11058558E+06  0.00000000E+00  4.11058558E+06
        55   68       1.01328227E-03  4.11058558E+06  0.00000000E+00  0.00000000E+00  4.11058558E+06
        55   10       4.13171787E-02  0.00000000E+00  0.00000000E+00  5.70714653E+08  5.70714653E+08
        31   77       5.62258413E-03  0.00000000E+00  0.00000000E+00  2.97103882E+06  2.97103882E+06
        31    5       5.37298134E-05  0.00000000E+00  6.43503041E+04  0.00000000E+00  6.43503041E+04
        31   79       1.63190101E-03  0.00000000E+00  0.00000000E+00  2.83363105E+06  2.83363105E+06
        31    6       1.38478526E-03  0.00000000E+00  5.46815023E+06  0.00000000E+00  5.46815023E+06
        31   45       1.38478526E-03  5.46815023E+06  0.00000000E+00  0.00000000E+00  5.46815023E+06
        31    7       2.55102197E-04  0.00000000E+00  1.01366548E+06  0.00000000E+00  1.01366548E+06
        31   80       9.38051570E-02  0.00000000E+00  0.00000000E+00  3.78619150E+08  3.78619150E+08
        31    8       4.06658051E-03  0.00000000E+00  1.69563472E+07  0.00000000E+00  1.69563472E+07
        31   46       8.21825667E-02  7.89273989E+08  0.00000000E+00  0.00000000E+00  7.89273989E+08
        31   47       3.80403360E-04  4.24135253E+06  0.00000000E+00  0.00000000E+00  4.24135253E+06
        31    9       4.11879526E-03  0.00000000E+00  5.06987781E+07  0.00000000E+00  5.06987781E+07
        31   10       6.56202605E-02  0.00000000E+00  9.03932865E+08  0.00000000E+00  9.03932865E+08
        31   11       7.39241321E-02  0.00000000E+00  1.08180450E+09  0.00000000E+00  1.08180450E+09
        19   65       5.62258413E-03  0.00000000E+00  0.00000000E+00  2.97103882E+06  2.97103882E+06
        19    5       5.37298134E-05  6.43503041E+04  0.00000000E+00  0.00000000E+00  6.43503041E+04
        19   67       1.63190101E-03  0.00000000E+00  0.00000000E+00  2.83363105E+06  2.83363105E+06
        19    6       1.38478526E-03  5.46815023E+06  0.00000000E+00  0.00000000E+00  5.46815023E+06
        19   45       1.38478526E-03  0.00000000E+00  5.46815023E+06  0.00000000E+00  5.46815023E+06
        19    7       2.55102197E-04  1.01366548E+06  0.00000000E+00  0.00000000E+00  1.01366548E+06
        19   68       9.38051570E-02  0.00000000E+00  0.00000000E+00  3.78619150E+08  3.78619150E+08
        19    8       4.06658051E-03  1.69563472E+07  0.00000000E+00  0.00000000E+00  1.69563472E+07
        19   46       8.21825667E-02  0.00000000E+00  7.89273989E+08  0.00000000E+00  7.89273989E+08
        19   47       3.80403360E-04  0.00000000E+00  4.24135253E+06  0.00000000E+00  4.24135253E+06
        19    9       4.11879526E-03  5.06987781E+07  0.00000000E+00  0.00000000E+00  5.06987781E+07
        19   10       6.56202605E-02  9.03932865E+08  0.00000000E+00  0.00000000E+00  9.03932865E+08
        19   11       7.39241321E-02  1.08180450E+09  0.00000000E+00  0.00000000E+00  1.08180450E+09
        75   99       1.11145296E-03  0.00000000E+00  8.98856420E+04  0.00000000E+00  8.98856420E+04
        75   30       8.18852255E-02  0.00000000E+00  0.00000000E+00  1.19805418E+08  1.19805418E+08
        87   99       1.11145296E-03  8.98856420E+04  0.00000000E+00  0.00000000E+00  8.98856420E+04
        87   42       8.18852255E-02  0.00000000E+00  0.00000000E+00  1.19805418E+08  1.19805418E+08
        56    4       4.15480439E-02  0.00000000E+00  0.00000000E+00  1.10923524E+07  1.10923524E+07
        56    5       4.00404385E-02  0.00000000E+00  0.00000000E+00  2.72194030E+07  2.72194030E+07
        56   79       3.43829761E-05  0.00000000E+00  3.77517690E+04  0.00000000E+00  3.77517690E+04
        56   67       3.43829761E-05  3.77517690E+04  0.00000000E+00  0.00000000E+00  3.77517690E+04
        56    7       1.79664206E-03  0.00000000E+00  0.00000000E+00  5.33684211E+06  5.33684211E+06
        56   80       2.19981750E-03  0.00000000E+00  6.65371403E+06  0.00000000E+00  6.65371403E+06
        56   68       2.19981750E-03  6.65371403E+06  0.00000000E+00  0.00000000E+00  6.65371403E+06
        56    8       1.31421387E-03  0.00000000E+00  0.00000000E+00  4.12707502E+06  4.12707502E+06
        56    9       1.58595086E-03  0.00000000E+00  0.00000000E+00  1.66338464E+07  1.66338464E+07
        56   11       2.87249770E-02  0.00000000E+00  0.00000000E+00  3.63141105E+08  3.63141105E+08
        49   25       1.85680991E-04  0.00000000E+00  1.11087340E+03  0.00000000E+00  1.11087340E+03
        49   37       1.85680991E-04  1.11087340E+03  0.00000000E+00  0.00000000E+00  1.11087340E+03
        49   26       1.79300420E-04  0.00000000E+00  1.92190649E+05  0.00000000E+00  1.92190649E+05
        49   38       1.79300420E-04  1.92190649E+05  0.00000000E+00  0.00000000E+00  1.92190649E+05
        49   39       2.00803869E-04  3.20260413E+05  0.00000000E+00  0.00000000E+00  3.20260413E+05
        49   27       2.00803869E-04  0.00000000E+00  3.20260413E+05  0.00000000E+00  3.20260413E+05
        49   41       8.66544097E-04  1.98002464E+06  0.00000000E+00  0.00000000E+00  1.98002464E+06
        49   29       8.66544097E-04  0.00000000E+00  1.98002464E+06  0.00000000E+00  1.98002464E+06
        49   97       2.15079122E-04  0.00000000E+00  0.00000000E+00  1.21475246E+06  1.21475246E+06
        25   73       1.33189163E-05  0.00000000E+00  0.00000000E+00  3.05646652E+03  3.05646652E+03
        25   50       1.19438543E-04  0.00000000E+00  9.87093033E+04  0.00000000E+00  9.87093033E+04
        25   51       5.25169205E-04  0.00000000E+00  7.78414950E+05  0.00000000E+00  7.78414950E+05
        25   13       5.25169205E-04  7.78414950E+05  0.00000000E+00  0.00000000E+00  7.78414950E+05
        25   14       2.76851893E-04  4.24017441E+05  0.00000000E+00  0.00000000E+00  4.24017441E+05
        25   52       2.89444097E-03  0.00000000E+00  1.68187955E+07  0.00000000E+00  1.68187955E+07
        25   53       1.04054561E-03  0.00000000E+00  6.32649935E+06  0.00000000E+00  6.32649935E+06
        25   15       1.04054561E-03  6.32649935E+06  0.00000000E+00  0.00000000E+00  6.32649935E+06
        37   85       1.33189163E-05  0.00000000E+00  0.00000000E+00  3.05646652E+03  3.05646652E+03
        37   50       1.19438543E-04  9.87093033E+04  0.00000000E+00  0.00000000E+00  9.87093033E+04
        37   51       5.25169205E-04  7.78414950E+05  0.00000000E+00  0.00000000E+00  7.78414950E+05
        37   13       5.25169205E-04  0.00000000E+00  7.78414950E+05  0.00000000E+00  7.78414950E+05
        37   14       2.76851893E-04  0.00000000E+00  4.24017441E+05  0.00000000E+00  4.24017441E+05
        37   52       2.89444097E-03  1.68187955E+07  0.00000000E+00  0.00000000E+00  1.68187955E+07
        37   53       1.04054561E-03  6.32649935E+06  0.00000000E+00  0.00000000E+00  6.32649935E+06
        37   15       1.04054561E-03  0.00000000E+00  6.32649935E+06  0.00000000E+00  6.32649935E+06
        82   60       3.47643360E-04  0.00000000E+00  4.12863812E+04  0.00000000E+00  4.12863812E+04
        82   95       3.47643360E-04  4.12863812E+04  0.00000000E+00  0.00000000E+00  4.12863812E+04
        82   61       1.46550950E-04  0.00000000E+00  2.58067962E+04  0.00000000E+00  2.58067962E+04
        82   96       4.46086610E-04  1.20290054E+05  0.00000000E+00  0.00000000E+00  1.20290054E+05
        82   38       2.62145339E-03  0.00000000E+00  0.00000000E+00  2.23515376E+06  2.23515376E+06
        82   39       4.73062867E-02  0.00000000E+00  0.00000000E+00  6.26662686E+07  6.26662686E+07
        82   41       1.57072862E-02  0.00000000E+00  0.00000000E+00  3.07719123E+07  3.07719123E+07
        82   62       2.08938723E-03  0.00000000E+00  8.26260871E+06  0.00000000E+00  8.26260871E+06
        82   97       2.47253780E-05  1.26802016E+05  0.00000000E+00  0.00000000E+00  1.26802016E+05
        82   98       6.30812419E-05  3.57779461E+05  0.00000000E+00  0.00000000E+00  3.57779461E+05
        70   60       3.47643360E-04  4.12863812E+04  0.00000000E+00  0.00000000E+00  4.12863812E+04
        70   95       3.47643360E-04  0.00000000E+00  4.12863812E+04  0.00000000E+00  4.12863812E+04
        70   61       1.46550950E-04  2.58067962E+04  0.00000000E+00  0.00000000E+00  2.58067962E+04
        70   96       4.46086610E-04  0.00000000E+00  1.20290054E+05  0.00000000E+00  1.20290054E+05
        70   26       2.62145339E-03  0.00000000E+00  0.00000000E+00  2.23515376E+06  2.23515376E+06
        70   27       4.73062867E-02  0.00000000E+00  0.00000000E+00  6.26662686E+07  6.26662686E+07
        70   29       1.57072862E-02  0.00000000E+00  0.00000000E+00  3.07719123E+07  3.07719123E+07
        70   62       2.08938723E-03  8.26260871E+06  0.00000000E+00  0.00000000E+00  8.26260871E+06
        70   97       2.47253780E-05  0.00000000E+00  1.26802016E+05  0.00000000E+00  1.26802016E+05
        70   98       6.30812419E-05  0.00000000E+00  3.57779461E+05  0.00000000E+00  3.57779461E+05
        44   20       1.01441101E-05  0.00000000E+00  1.58770181E-01  0.00000000E+00  1.58770181E-01
        44   32       1.01441101E-05  1.58770181E-01  0.00000000E+00  0.00000000E+00  1.58770181E-01
        44   33       3.47665535E-04  5.49379159E+05  0.00000000E+00  0.00000000E+00  5.49379159E+05
        44   21       3.47665535E-04  0.00000000E+00  5.49379159E+05  0.00000000E+00  5.49379159E+05
        44   23       6.55150193E-04  0.00000000E+00  1.73092082E+06  0.00000000E+00  1.73092082E+06
        44   35       6.55150193E-04  1.73092082E+06  0.00000000E+00  0.00000000E+00  1.73092082E+06
        44   91       3.71254872E-05  0.00000000E+00  0.00000000E+00  1.77572518E+05  1.77572518E+05
         3   20       1.01441101E-05  1.58770181E-01  0.00000000E+00  0.00000000E+00  1.58770181E-01
         3   32       1.01441101E-05  0.00000000E+00  1.58770181E-01  0.00000000E+00  1.58770181E-01
         3   33       3.47665535E-04  0.00000000E+00  5.49379159E+05  0.00000000E+00  5.49379159E+05
         3   21       3.47665535E-04  5.49379159E+05  0.00000000E+00  0.00000000E+00  5.49379159E+05
         3   23       6.55150193E-04  1.73092082E+06  0.00000000E+00  0.00000000E+00  1.73092082E+06
         3   35       6.55150193E-04  0.00000000E+00  1.73092082E+06  0.00000000E+00  1.73092082E+06
         3   57       3.71254872E-05  0.00000000E+00  0.00000000E+00  1.77572518E+05  1.77572518E+05
        20    5       2.90026360E-03  3.94595168E+05  0.00000000E+00  0.00000000E+00  3.94595168E+05
        20   67       2.51581679E-04  0.00000000E+00  0.00000000E+00  8.82306267E+04  8.82306267E+04
        20    6       8.26565871E-04  1.31563252E+06  0.00000000E+00  0.00000000E+00  1.31563252E+06
        20   45       8.26565871E-04  0.00000000E+00  1.31563252E+06  0.00000000E+00  1.31563252E+06
        20    7       8.98121854E-05  1.44369881E+05  0.00000000E+00  0.00000000E+00  1.44369881E+05
        20   68       4.29583078E-04  0.00000000E+00  0.00000000E+00  7.07699254E+05  7.07699254E+05
        20    8       1.27736494E-04  2.21375033E+05  0.00000000E+00  0.00000000E+00  2.21375033E+05
        20   46       6.19036110E-03  0.00000000E+00  3.48732708E+07  0.00000000E+00  3.48732708E+07
        20   47       1.72089967E-04  0.00000000E+00  1.17551407E+06  0.00000000E+00  1.17551407E+06
        20    9       3.98902365E-05  3.08934388E+05  0.00000000E+00  0.00000000E+00  3.08934388E+05
        20   10       1.89753585E-05  1.69185130E+05  0.00000000E+00  0.00000000E+00  1.69185130E+05
        20   11       2.30270764E-04  2.21278280E+06  0.00000000E+00  0.00000000E+00  2.21278280E+06
        32    5       2.90026360E-03  0.00000000E+00  3.94595168E+05  0.00000000E+00  3.94595168E+05
        32   79       2.51581679E-04  0.00000000E+00  0.00000000E+00  8.82306267E+04  8.82306267E+04
        32    6       8.26565871E-04  0.00000000E+00  1.31563252E+06  0.00000000E+00  1.31563252E+06
        32   45       8.26565871E-04  1.31563252E+06  0.00000000E+00  0.00000000E+00  1.31563252E+06
        32    7       8.98121853E-05  0.00000000E+00  1.44369881E+05  0.00000000E+00  1.44369881E+05
        32   80       4.29583078E-04  0.00000000E+00  0.00000000E+00  7.07699254E+05  7.07699254E+05
        32    8       1.27736494E-04  0.00000000E+00  2.21375033E+05  0.00000000E+00  2.21375033E+05
        32   46       6.19036110E-03  3.48732708E+07  0.00000000E+00  0.00000000E+00  3.48732708E+07
        32   47       1.72089967E-04  1.17551407E+06  0.00000000E+00  0.00000000E+00  1.17551407E+06
        32    9       3.98902365E-05  0.00000000E+00  3.08934388E+05  0.00000000E+00  3.08934388E+05
        32   10       1.89753585E-05  0.00000000E+00  1.69185130E+05  0.00000000E+00  1.69185130E+05
        32   11       2.30270764E-04  0.00000000E+00  2.21278280E+06  0.00000000E+00  2.21278280E+06
        65   90       3.71500886E-04  0.00000000E+00  1.31938431E+05  0.00000000E+00  1.31938431E+05
        65   21       4.35911727E-02  0.00000000E+00  0.00000000E+00  6.82971266E+07  6.82971266E+07
        65   22       7.23078239E-03  0.00000000E+00  0.00000000E+00  1.43751782E+07  1.43751782E+07
        65   91       1.41637822E-02  0.00000000E+00  6.74146432E+07  0.00000000E+00  6.74146432E+07
        65   57       1.41637822E-02  6.74146432E+07  0.00000000E+00  0.00000000E+00  6.74146432E+07
        65   92       1.32298168E-05  0.00000000E+00  8.39652083E+04  0.00000000E+00  8.39652083E+04
        77   90       3.71500886E-04  1.31938431E+05  0.00000000E+00  0.00000000E+00  1.31938431E+05
        77   33       4.35911727E-02  0.00000000E+00  0.00000000E+00  6.82971266E+07  6.82971266E+07
        77   34       7.23078239E-03  0.00000000E+00  0.00000000E+00  1.43751782E+07  1.43751782E+07
        77   91       1.41637822E-02  6.74146432E+07  0.00000000E+00  0.00000000E+00  6.74146432E+07
        77   57       1.41637822E-02  0.00000000E+00  6.74146432E+07  0.00000000E+00  6.74146432E+07
        77   92       1.32298168E-05  8.39652083E+04  0.00000000E+00  0.00000000E+00  8.39652083E+04
        71   96       2.37977896E-04  0.00000000E+00  1.69910103E+04  0.00000000E+00  1.69910103E+04
        71   26       9.92576749E-05  0.00000000E+00  0.00000000E+00  4.47302709E+04  4.47302709E+04
        71   27       3.04107693E-03  0.00000000E+00  0.00000000E+00  2.45709786E+06  2.45709786E+06
        71   29       5.39657012E-02  0.00000000E+00  0.00000000E+00  7.10710498E+07  7.10710498E+07
        71   62       7.32697353E-04  2.20946622E+06  0.00000000E+00  0.00000000E+00  2.20946622E+06
[...]
        83   95      --------------- below threshold  1.66866837E-05
        83   61      --------------- below threshold  8.11520021E-05
        83   96           774.697614  2.37977896E-04  2.72068761E-05
        83   38            58.922485  9.92576749E-05  2.41635051E-04
        83   39            33.055121  3.04107693E-03  2.28557676E-03
        83   41            64.192283  5.39657012E-02  3.28673798E-02
        83   62            39.030647  7.32697353E-04  1.20174698E-03
        83   97            12.743832  1.99745995E-02  1.77168003E-02
        83   98      ---------------  2.61959133E-04 below threshold
        84   60            98.884577  8.97230243E-05  8.04385938E-03
        84   95            98.884577  8.97230243E-05  8.04385938E-03
        84   40            67.721025  6.45441682E-02  3.84830515E-02
        72   60            98.884577  8.97230243E-05  8.04385938E-03
        72   95            98.884577  8.97230243E-05  8.04385938E-03
        72   28            67.721025  6.45441682E-02  3.84830515E-02
         4   33            79.103115  2.18859572E-04  1.04733106E-03
         4   21            79.103115  2.18859572E-04  1.04733106E-03
         4   34            97.360136  2.41859456E-05  9.16181668E-04
         4   22            97.360136  2.41859456E-05  9.16181668E-04
        60   85            97.317282  1.09625130E-05  4.08634510E-04
        60   73            97.317282  1.09625130E-05  4.08634510E-04
        60   13            55.678125  5.25830144E-04  1.18638967E-03
        60   74            98.470368  5.10293323E-05  3.33605273E-03
        60   86            98.470368  5.10293323E-05  3.33605273E-03
        60   15            68.549776  3.63471104E-03  1.15570275E-02
        95   85            97.317282  1.09625130E-05  4.08634510E-04
        95   73            97.317282  1.09625130E-05  4.08634510E-04
        95   51            55.678125  5.25830144E-04  1.18638967E-03
        95   74            98.470368  5.10293323E-05  3.33605273E-03
        95   86            98.470368  5.10293323E-05  3.33605273E-03
        95   53            68.549776  3.63471104E-03  1.15570275E-02
        61   85            99.937514  2.87153204E-05  4.59548009E-02
        61   73            99.937514  2.87153204E-05  4.59548009E-02
        61   14            54.110094  5.93785307E-04  1.29393446E-03
        61   74            98.279946  4.97673834E-05  2.89336252E-03
        61   86            98.279946  4.97673834E-05  2.89336252E-03
        85   96      --------------- below threshold  1.35796170E-02
        85   38            89.343551  1.52785554E-03  1.43373798E-02
        85   39            40.233529  1.25807534E-03  2.10498517E-03
        85   41           104.976357  3.35564590E-04  1.63708925E-04
        85   62           162.664368  4.13569831E-05  1.57451821E-05
        85   97            31.872724  4.91601725E-04  3.72784994E-04
        85   63            24.034892  4.90187676E-04  6.45280040E-04
        85   98          1222.530001  1.23834743E-03  9.36347330E-05
        73   96      --------------- below threshold  1.35796170E-02
        73   26            89.343551  1.52785554E-03  1.43373798E-02
        73   27            40.233529  1.25807534E-03  2.10498517E-03
        73   29           104.976357  3.35564590E-04  1.63708925E-04
        73   62           162.664368  4.13569831E-05  1.57451821E-05
        73   97            31.872724  4.91601725E-04  3.72784994E-04
        73   63            24.034892  4.90187676E-04  6.45280040E-04
        73   98          1222.530001  1.23834743E-03  9.36347330E-05
        96   50           159.361788  9.15247319E-05  3.52884412E-05
        96   74            99.717290  2.58799074E-05  9.15422262E-03
        96   86            99.717290  2.58799074E-05  9.15422262E-03
        96   52           213.671696  2.23854142E-02  7.13657448E-03
         5   33            83.735376  7.23942213E-05  4.45102344E-04
         5   21            83.735376  7.23942213E-05  4.45102344E-04
         5   34            77.119619  1.16383882E-03  5.08662332E-03
         5   22            77.119619  1.16383882E-03  5.08662332E-03
        16   30            99.104871  1.24923064E-04  1.39558727E-02
        16   42            99.104871  1.24923064E-04  1.39558727E-02
        54   30            99.104871  1.24923064E-04  1.39558727E-02
        54   42            99.104871  1.24923064E-04  1.39558727E-02
        17   30            98.922277  7.89870518E-05  7.32906487E-03
        17   42            98.922277  7.89870518E-05  7.32906487E-03
        78   35            55.647458  7.96415074E-02  5.11678817E-02
        78   91           137.825838  4.91158808E-03  2.06520373E-03
        78   57           137.825838  4.91158808E-03  2.06520373E-03
        66   23            55.647458  7.96415074E-02  5.11678817E-02
        66   91           137.825838  4.91158808E-03  2.06520373E-03
        66   57           137.825838  4.91158808E-03  2.06520373E-03
        30   18            43.987148  1.81851721E-03  3.24660708E-03
        42   18            43.987148  1.81851721E-03  3.24660708E-03
        79   90      --------------- below threshold  2.95128598E-01
        79   33      --------------- below threshold  4.85334593E-04
        79   34            34.967307  1.21216429E-02  1.86393064E-02
        79   91           104.307115  8.55719745E-04  4.18839913E-04
        79   57           104.307115  8.55719745E-04  4.18839913E-04
        79   92          3695.028382  1.86487794E-03  4.91400262E-05
        67   90      --------------- below threshold  2.95128598E-01
        67   21      --------------- below threshold  4.85334593E-04
        67   22            34.967307  1.21216429E-02  1.86393064E-02
        67   91           104.307115  8.55719745E-04  4.18839913E-04
        67   57           104.307115  8.55719745E-04  4.18839913E-04
        67   92          3695.028384  1.86487794E-03  4.91400261E-05
        90   80            99.612260  5.08968664E-05  1.31265460E-02
        90   68            99.612260  5.08968664E-05  1.31265460E-02
        90   46            72.014103  2.63828408E-02  1.53376033E-02
        90   47            37.146208  3.73977353E-02  2.72685158E-02
        50   26      --------------- below threshold  2.17408901E-03
        50   38      --------------- below threshold  2.17408901E-03
        50   39            96.779755  2.35957687E-04  7.32732080E-03
        50   27            96.779755  2.35957687E-04  7.32732080E-03
        50   41            97.745002  4.27598208E-05  1.89622470E-03
        50   29            97.745002  4.27598208E-05  1.89622470E-03
        50   97            57.360981  3.05379812E-03  7.16198021E-03
        26   51            95.126154  3.74303663E-05  7.67984171E-04
        26   13            95.126154  3.74303663E-05  7.67984171E-04
        26   14            89.930148  7.52502299E-05  7.47282373E-04
        26   74            93.968248  2.50165542E-04  4.14747712E-03
        26   52           742.551914  2.63225211E-03  3.12414234E-04
        26   53           248.249140  9.57730687E-04  2.75013080E-04
        26   15           248.249140  9.57730687E-04  2.75013080E-04
        38   51            95.126154  3.74303663E-05  7.67984171E-04
        38   13            95.126154  3.74303663E-05  7.67984171E-04
        38   14            89.930148  7.52502299E-05  7.47282373E-04
        38   86            93.968248  2.50165542E-04  4.14747712E-03
        38   52           742.551914  2.63225211E-03  3.12414234E-04
        38   53           248.249140  9.57730687E-04  2.75013080E-04
        38   15           248.249140  9.57730687E-04  2.75013080E-04
        39   51      --------------- below threshold  1.35728711E-03
        39   13      --------------- below threshold  1.35728711E-03
        39   14      --------------- below threshold  1.47735211E-02
        39   86            86.915495  3.77298564E-04  2.88355245E-03
        39   52            62.724638  3.52065448E-03  9.44499068E-03
        39   53            23.981228  1.88470561E-04  1.52015402E-04
        39   15            23.981228  1.88470561E-04  1.52015402E-04
        27   51      --------------- below threshold  1.35728711E-03
        27   13      --------------- below threshold  1.35728711E-03
        27   14      --------------- below threshold  1.47735211E-02
        27   74            86.915495  3.77298564E-04  2.88355245E-03
        27   52            62.724638  3.52065448E-03  9.44499068E-03
        27   53            23.981228  1.88470561E-04  1.52015402E-04
        27   15            23.981228  1.88470561E-04  1.52015402E-04
        51   40            98.929920  1.03934187E-04  9.71275365E-03
        51   28            98.929920  1.03934187E-04  9.71275365E-03
        51   41            99.570394  2.54779921E-05  5.93055527E-03
        51   29            99.570394  2.54779921E-05  5.93055527E-03
        51   98            67.515262  2.61303198E-05  8.04387593E-05
        13   40            98.929920  1.03934187E-04  9.71275365E-03
        13   28            98.929920  1.03934187E-04  9.71275365E-03
        13   41            99.570394  2.54779921E-05  5.93055527E-03
        13   29            99.570394  2.54779921E-05  5.93055527E-03
        14   41            99.399512  8.16268821E-05  1.35934179E-02
        14   29            99.399512  8.16268821E-05  1.35934179E-02
        14   63            27.913233  3.80763476E-05  5.28201625E-05
        74   29      --------------- below threshold  4.13706074E-04
        74   62      --------------- below threshold  2.39896434E-03
        74   97           566.592633  5.95033578E-04  8.92649496E-05
        74   63            22.867851  8.57296016E-05  1.11146393E-04
        74   98            96.111127  7.17312963E-05  1.84452653E-03
        86   41      --------------- below threshold  4.13706074E-04
        86   62      --------------- below threshold  2.39896434E-03
        86   97           566.592633  5.95033578E-04  8.92649496E-05
        86   63            22.867851  8.57296016E-05  1.11146393E-04
        86   98            96.111127  7.17312963E-05  1.84452653E-03
        40   53            70.240928  3.08295306E-03  1.03597085E-02
        40   15            70.240928  3.08295306E-03  1.03597085E-02
        28   53            70.240928  3.08295306E-03  1.03597085E-02
        28   15            70.240928  3.08295306E-03  1.03597085E-02
        41   52            16.388249  1.11303923E-04  1.33119952E-04
        29   52            16.388249  1.11303923E-04  1.33119952E-04
        33    6      --------------- below threshold  4.68715362E-02
        33   45      --------------- below threshold  4.68715362E-02
        33    7      --------------- below threshold  7.01381823E-02
        33   80            94.169942  4.04841429E-04  6.94403803E-03
        33    8            99.951402  1.21646406E-05  2.50309087E-02
        33   46            20.092985  8.36373787E-03  1.04668380E-02
        33   47           160.283414  1.34392118E-03  5.16329933E-04
        33    9            30.000251  8.02299988E-04  1.14614695E-03
        33   10            92.685754  4.25674760E-05  5.81980405E-04
        33   11            98.765199  1.41810698E-05  1.14844953E-03
        21    6      --------------- below threshold  4.68715362E-02
        21   45      --------------- below threshold  4.68715362E-02
        21    7      --------------- below threshold  7.01381823E-02
        21   68            94.169942  4.04841429E-04  6.94403803E-03
        21    8            99.951402  1.21646406E-05  2.50309087E-02
        21   46            20.092985  8.36373787E-03  1.04668380E-02
        21   47           160.283414  1.34392118E-03  5.16329933E-04
        21    9            30.000251  8.02299988E-04  1.14614695E-03
        21   10            92.685754  4.25674760E-05  5.81980405E-04
        21   11            98.765199  1.41810698E-05  1.14844953E-03
         6   34            91.757494  7.24086782E-05  8.78478958E-04
         6   22            91.757494  7.24086782E-05  8.78478958E-04
         6   23            97.955712  1.63942500E-04  8.01953918E-03
         6   35            97.955712  1.63942500E-04  8.01953918E-03
         6   57            72.942211  1.96050889E-03  7.24563607E-03
        45   34            91.757494  7.24086782E-05  8.78478958E-04
        45   22            91.757494  7.24086782E-05  8.78478958E-04
        45   23            97.955712  1.63942500E-04  8.01953918E-03
        45   35            97.955712  1.63942500E-04  8.01953918E-03
        45   91            72.942211  1.96050889E-03  7.24563607E-03
         7   34      --------------- below threshold  3.55054339E-04
         7   22      --------------- below threshold  3.55054339E-04
        80   34            98.661620  1.44018978E-04  1.07606962E-02
        80   91            59.546791  6.82345244E-04  1.68675184E-03
        80   57            59.546791  6.82345244E-04  1.68675184E-03
        80   92            97.088108  8.55802388E-05  2.93899054E-03
        68   22            98.661620  1.44018978E-04  1.07606962E-02
        68   91            59.546791  6.82345244E-04  1.68675184E-03
        68   57            59.546791  6.82345244E-04  1.68675184E-03
        68   92            97.088108  8.55802388E-05  2.93899054E-03
         8   34      --------------- below threshold  8.99592010E-04
         8   22      --------------- below threshold  8.99592010E-04
        34   46            96.900036  1.74015447E-04  5.61346695E-03
        34   47           178.864204  2.58847028E-04  9.28218913E-05
        34    9           215.719997  2.05270615E-04  6.50166658E-05
        34   10           643.303758  3.82626019E-04  5.14764005E-05
        34   11            99.563922  2.83367310E-05  6.49809206E-03
        22   46            96.900036  1.74015447E-04  5.61346695E-03
        22   47           178.864204  2.58847028E-04  9.28218913E-05
        22    9           215.719997  2.05270615E-04  6.50166658E-05
        22   10           643.303758  3.82626019E-04  5.14764005E-05
        22   11            99.563922  2.83367310E-05  6.49809206E-03
        23   10            98.843589  4.43223318E-05  3.83274954E-03
        23   12           853.901815  9.00210093E-04  9.43713576E-05
        35   10            98.843589  4.43223318E-05  3.83274954E-03
        35   12           853.901815  9.00210093E-04  9.43713576E-05
        97   52            99.884859  4.53824638E-05  3.94145164E-02
        98   53      --------------- below threshold  7.37653488E-04
        57   10            62.531708  1.66029614E-02  4.43120311E-02
        46   92            91.418848  9.56948365E-05  1.11517469E-03
        92   47            87.658673  4.68947934E-05  3.79981769E-04
     ---------------------------------------------------------------

 Number of problematic transitions =                   543

--

 Electric-dipole - electric-octupole not included
 Electric-dipole - magnetic-quadrupole not included


      ****************************************************************************************************
      *                                                                                                  *
      *                                    Special properties section                                    *
      *                                                                                                  *
      ****************************************************************************************************


++ I/O STATISTICS
 
  I. General I/O information
  - - - - - - - - - - - - - - - - - - - - - - - - - - - - - - - - - - - - - - - - - - -
  Unit  Name          Flsize      Write/Read            MBytes           Write/Read
                      (MBytes)       Calls              In/Out           Time, sec.
  - - - - - - - - - - - - - - - - - - - - - - - - - - - - - - - - - - - - - - - - - - -
   1  RUNFILE           0.99 .     266/  262973 .      2.5/   1902.4 .       0/       0
   2  ANNI              0.00 .       0/       0 .      0.0/      0.0 .       0/       0
   3  ONEINT            1.54 .       0/  126040 .      0.0/ 152831.4 .       0/      19
   4  JOBIPH            1.52 .       0/     651 .      0.0/      1.5 .       0/       0
   5  JOBIPH01          1.22 .       0/     219 .      0.0/      1.3 .       0/       0
   6  JOBIPH02          1.22 .       0/     219 .      0.0/      1.3 .       0/       0
   7  JOBIPH03          1.28 .       0/     315 .      0.0/      1.4 .       0/       0
   8  JOBIPH04          1.32 .       0/     363 .      0.0/      1.4 .       0/       0
   9  JOBIPH05          1.15 .       0/     123 .      0.0/      1.3 .       0/       0
  10  JOBIPH06          1.28 .       0/     315 .      0.0/      1.4 .       0/       0
  11  JOBIPH07          1.32 .       0/     363 .      0.0/      1.4 .       0/       0
  12  JOBIPH08          1.15 .       0/     123 .      0.0/      1.3 .       0/       0
  13  JOBIPH09          1.28 .       0/     315 .      0.0/      1.4 .       0/       0
  14  JOBIPH10          1.32 .       0/     363 .      0.0/      1.4 .       0/       0
  15  JOBIPH11          1.15 .       0/     123 .      0.0/      1.3 .       0/       0
  16  JOBIPH12          1.22 .       0/     219 .      0.0/      1.3 .       0/       0
  17  JOBIPH13          1.32 .       0/     363 .      0.0/      1.4 .       0/       0
  18  JOBIPH14          1.28 .       0/     315 .      0.0/      1.4 .       0/       0
  19  JOBIPH15          1.32 .       0/     363 .      0.0/      1.4 .       0/       0
  20  JOBIPH16          1.15 .       0/     123 .      0.0/      1.3 .       0/       0
  21  JOBIPH17          1.28 .       0/     315 .      0.0/      1.4 .       0/       0
  22  JOBIPH18          1.32 .       0/     363 .      0.0/      1.4 .       0/       0
  23  JOBIPH19          1.15 .       0/     123 .      0.0/      1.3 .       0/       0
  24  JOBIPH20          1.28 .       0/     315 .      0.0/      1.4 .       0/       0
  25  JOBIPH21          1.32 .       0/     363 .      0.0/      1.4 .       0/       0
  26  JOBIPH22          1.15 .       0/     123 .      0.0/      1.3 .       0/       0
  - - - - - - - - - - - - - - - - - - - - - - - - - - - - - - - - - - - - - - - - - - -
   *  TOTAL            31.50 .     266/  395490 .      2.5/ 154764.9 .       0/      19
  - - - - - - - - - - - - - - - - - - - - - - - - - - - - - - - - - - - - - - - - - - -
 
  II. I/O Access Patterns
  - - - - - - - - - - - - - - - - - - - -
  Unit  Name               % of random
                         Write/Read calls
  - - - - - - - - - - - - - - - - - - - -
   1  RUNFILE             28.6/  11.1
   2  ANNI                 0.0/   0.0
   3  ONEINT               0.0/  99.3
   4  JOBIPH               0.0/  51.9
   5  JOBIPH01             0.0/  55.7
   6  JOBIPH02             0.0/  55.7
   7  JOBIPH03             0.0/  54.0
   8  JOBIPH04             0.0/  53.4
   9  JOBIPH05             0.0/  60.2
  10  JOBIPH06             0.0/  54.0
  11  JOBIPH07             0.0/  53.4
  12  JOBIPH08             0.0/  60.2
  13  JOBIPH09             0.0/  54.0
  14  JOBIPH10             0.0/  53.4
  15  JOBIPH11             0.0/  60.2
  16  JOBIPH12             0.0/  55.7
  17  JOBIPH13             0.0/  53.4
  18  JOBIPH14             0.0/  54.0
  19  JOBIPH15             0.0/  53.4
  20  JOBIPH16             0.0/  60.2
  21  JOBIPH17             0.0/  54.0
  22  JOBIPH18             0.0/  53.4
  23  JOBIPH19             0.0/  60.2
  24  JOBIPH20             0.0/  54.0
  25  JOBIPH21             0.0/  53.4
  26  JOBIPH22             0.0/  60.2
  - - - - - - - - - - - - - - - - - - - -
--
--- Stop Module: rassi at Thu Apr 17 10:46:33 2025 /rc=_RC_ALL_IS_WELL_ ---
--- Module rassi spent 41 seconds ---

.##################.
.# Happy landing! #.
.##################.

    Timing: Wall=41.49 User=19.85 System=20.71
