   This run of MOLCAS is using the pymolcas driver

                             OPE
                             OPE          NMOL  CASOP  ENMOLC A   SO
                 OPE        NMOLC        AS  OP EN  MO LC     AS  OP
                OPENM       OL CA        SO  PE NM  OL CA     SOP EN
                OP EN      MO   LC       AS  OP ENMOL  CASO   PENMOL
                OP  EN     MO   LC       AS  OP EN     MO     LC ASO
               OP   E  NMOL  C  AS       OP  EN MO     LC     AS  OP
               OP  E   NMO   LC AS        OPEN  MO     LCASOP EN   M
               O  PEN   MO  LCA  SO
            OPE   NMO   L   CAS    OP
        OPENMOL  CASOP     ENMOL   CASOPE
     OPENMOLCA   SOPENMOLCASOPEN   MOLCASOPE
    OPENMOLCAS   OP           EN   MOL    CAS
    OPENMOLCAS       OP  ENM        O     LCA
    OPENMOLCAS    OPEN  MOLCASO     P  E  NMO
    OPENMOLCAS     OP               E  N  MOL
    OPENMOLCA   SO           PENM   O  L  CAS    OPEN    MO    LCAS
    OPENMOLCA   SOP           ENM   O  L  CAS   OP  EN  MOLC  AS   O
    OPENMOLCA   SOPE           NM      O  LCA   S      OP  EN MO
    OPENMOLC                AS         O  PEN   M      OL  CA  SOPE
    OPENMO        LCASOPE  NMOL        C  ASO   P      ENMOLC     AS
    OPE     NMO      LCA  SO     P     E   NM   OL  CA SO  PE N   MO
          OPENMOLCA            SOPE   NMO        LCAS  O    P  ENMO
     OPENMOLCASOPENMOLCASOPENMOLCASOPENMOLCA
        OPENMOLCASOPENMOLCASOPENMOLCASOPE
            OPENMOLCASOPENMOLCASOPENM
               OPENMOLCASOPENMOLCA        version: 25.02
                   OPENMOLCASO
                       OPE                tag: 92-gf4b470f0a

 OpenMolcas is free software; you can redistribute it and/or modify it
 under the terms of the GNU Lesser General Public License version 2.1.
 OpenMolcas is distributed in the hope that it will be useful, but it
 is provided "as is" and without any express or implied warranties.
 For more details see the full text of the license in the file
 LICENSE or in <http://www.gnu.org/licenses/>.

                 Copyright (C) The OpenMolcas Authors
           For the author list and the recommended citation,
                   consult the file CONTRIBUTORS.md

           *************************************************
           * pymolcas version py2.29                       *
           *   build 2ba4516c4d154a59cba941070ba63e2c      *
           *   (after the EMIL interpreter by V. Veryazov) *
           *************************************************

configuration info
------------------
Host name: iftia91.univ.gda.pl (Linux)
C Compiler ID: GNU
C flags: -std=gnu99
Fortran Compiler ID: GNU
Fortran flags: -cpp -fdefault-integer-8 -fmax-stack-var-size=1048576
Definitions: _MOLCAS_;_I8_;_LINUX_
Parallel: OFF (GA=OFF)


   --------------------------------------------------------------------
  |
  |           Project: O2
  |    Submitted from: /scratch/tecumseh/WorkSpace/O2.0.4500
  |      Scratch area: /scratch/tecumseh/WorkSpace/O2.0.4500
  |   Save outputs to: WORKDIR
  |            Molcas: /home/tecumseh/program/OpenMolcas/build
  |
  | Scratch area is NOT empty
  |
  |    MOLCAS_DRIVER = /home/tecumseh/program/OpenMolcas/build/pymolcas
  |    MOLCAS_NPROCS = 1
  |    MOLCAS_SOURCE = /home/tecumseh/program/OpenMolcas/OpenMolcas
  | MOLCAS_STRUCTURE = 0
  |
   --------------------------------------------------------------------

++ ---------   Input file   ---------

>>> COPY $dir/vectors/$Project.$R.1Ag-12S.JobIph $WorkDir/JOBIPH

>>> COPY $dir/vectors/$Project.$R.3Ag-3S.JobIph $WorkDir/JOBIPH01

>>> COPY $dir/vectors/$Project.$R.5Ag-3S.JobIph $WorkDir/JOBIPH02

>>> COPY $dir/vectors/$Project.$R.1B3u-5S.JobIph $WorkDir/JOBIPH03

>>> COPY $dir/vectors/$Project.$R.3B3u-6S.JobIph $WorkDir/JOBIPH04

>>> COPY $dir/vectors/$Project.$R.5B3u-1S.JobIph $WorkDir/JOBIPH05

>>> COPY $dir/vectors/$Project.$R.1B2u-5S.JobIph $WorkDir/JOBIPH06

>>> COPY $dir/vectors/$Project.$R.3B2u-6S.JobIph $WorkDir/JOBIPH07

>>> COPY $dir/vectors/$Project.$R.5B2u-1S.JobIph $WorkDir/JOBIPH08

>>> COPY $dir/vectors/$Project.$R.1B1g-5S.JobIph $WorkDir/JOBIPH09

>>> COPY $dir/vectors/$Project.$R.3B1g-6S.JobIph $WorkDir/JOBIPH10

>>> COPY $dir/vectors/$Project.$R.5B1g-1S.JobIph $WorkDir/JOBIPH11

>>> COPY $dir/vectors/$Project.$R.1B1u-3S.JobIph $WorkDir/JOBIPH12

>>> COPY $dir/vectors/$Project.$R.3B1u-6S.JobIph $WorkDir/JOBIPH13

>>> COPY $dir/vectors/$Project.$R.1B2g-5S.JobIph $WorkDir/JOBIPH14

>>> COPY $dir/vectors/$Project.$R.3B2g-6S.JobIph $WorkDir/JOBIPH15

>>> COPY $dir/vectors/$Project.$R.5B2g-1S.JobIph $WorkDir/JOBIPH16

>>> COPY $dir/vectors/$Project.$R.1B3g-5S.JobIph $WorkDir/JOBIPH17

>>> COPY $dir/vectors/$Project.$R.3B3g-6S.JobIph $WorkDir/JOBIPH18

>>> COPY $dir/vectors/$Project.$R.5B3g-1S.JobIph $WorkDir/JOBIPH19

>>> COPY $dir/vectors/$Project.$R.1Au-5S.JobIph $WorkDir/JOBIPH20

>>> COPY $dir/vectors/$Project.$R.3Au-6S.JobIph $WorkDir/JOBIPH21

>>> COPY $dir/vectors/$Project.$R.5Au-1S.JobIph $WorkDir/JOBIPH22

&RASSI

OMEGa
NROF=23 12 3 3 5 6 1 5 6 1 5 6 1 3 6 5 6 1 5 6 1 5 6 1
1 2 3 4 5 6 7 8 9 10 11 12
1 2 3
1 2 3
1 2 3 4 5
1 2 3 4 5 6
1
1 2 3 4 5
1 2 3 4 5 6
1
1 2 3 4 5
1 2 3 4 5 6
1
1 2 3
1 2 3 4 5 6
1 2 3 4 5
1 2 3 4 5 6
1
1 2 3 4 5
1 2 3 4 5 6
1
1 2 3 4 5
1 2 3 4 5 6
1
EJOB

-- ----------------------------------

>>> COPY /home/tecumseh/project/molecule/O2/OpenMolcas/vectors/O2.0.4500.1Ag-12S.JobIph /scratch/tecumseh/WorkSpace/O2.0.4500/JOBIPH

>>> COPY /home/tecumseh/project/molecule/O2/OpenMolcas/vectors/O2.0.4500.3Ag-3S.JobIph /scratch/tecumseh/WorkSpace/O2.0.4500/JOBIPH01

>>> COPY /home/tecumseh/project/molecule/O2/OpenMolcas/vectors/O2.0.4500.5Ag-3S.JobIph /scratch/tecumseh/WorkSpace/O2.0.4500/JOBIPH02

>>> COPY /home/tecumseh/project/molecule/O2/OpenMolcas/vectors/O2.0.4500.1B3u-5S.JobIph /scratch/tecumseh/WorkSpace/O2.0.4500/JOBIPH03

>>> COPY /home/tecumseh/project/molecule/O2/OpenMolcas/vectors/O2.0.4500.3B3u-6S.JobIph /scratch/tecumseh/WorkSpace/O2.0.4500/JOBIPH04

>>> COPY /home/tecumseh/project/molecule/O2/OpenMolcas/vectors/O2.0.4500.5B3u-1S.JobIph /scratch/tecumseh/WorkSpace/O2.0.4500/JOBIPH05

>>> COPY /home/tecumseh/project/molecule/O2/OpenMolcas/vectors/O2.0.4500.1B2u-5S.JobIph /scratch/tecumseh/WorkSpace/O2.0.4500/JOBIPH06

>>> COPY /home/tecumseh/project/molecule/O2/OpenMolcas/vectors/O2.0.4500.3B2u-6S.JobIph /scratch/tecumseh/WorkSpace/O2.0.4500/JOBIPH07

>>> COPY /home/tecumseh/project/molecule/O2/OpenMolcas/vectors/O2.0.4500.5B2u-1S.JobIph /scratch/tecumseh/WorkSpace/O2.0.4500/JOBIPH08

>>> COPY /home/tecumseh/project/molecule/O2/OpenMolcas/vectors/O2.0.4500.1B1g-5S.JobIph /scratch/tecumseh/WorkSpace/O2.0.4500/JOBIPH09

>>> COPY /home/tecumseh/project/molecule/O2/OpenMolcas/vectors/O2.0.4500.3B1g-6S.JobIph /scratch/tecumseh/WorkSpace/O2.0.4500/JOBIPH10

>>> COPY /home/tecumseh/project/molecule/O2/OpenMolcas/vectors/O2.0.4500.5B1g-1S.JobIph /scratch/tecumseh/WorkSpace/O2.0.4500/JOBIPH11

>>> COPY /home/tecumseh/project/molecule/O2/OpenMolcas/vectors/O2.0.4500.1B1u-3S.JobIph /scratch/tecumseh/WorkSpace/O2.0.4500/JOBIPH12

>>> COPY /home/tecumseh/project/molecule/O2/OpenMolcas/vectors/O2.0.4500.3B1u-6S.JobIph /scratch/tecumseh/WorkSpace/O2.0.4500/JOBIPH13

>>> COPY /home/tecumseh/project/molecule/O2/OpenMolcas/vectors/O2.0.4500.1B2g-5S.JobIph /scratch/tecumseh/WorkSpace/O2.0.4500/JOBIPH14

>>> COPY /home/tecumseh/project/molecule/O2/OpenMolcas/vectors/O2.0.4500.3B2g-6S.JobIph /scratch/tecumseh/WorkSpace/O2.0.4500/JOBIPH15

>>> COPY /home/tecumseh/project/molecule/O2/OpenMolcas/vectors/O2.0.4500.5B2g-1S.JobIph /scratch/tecumseh/WorkSpace/O2.0.4500/JOBIPH16

>>> COPY /home/tecumseh/project/molecule/O2/OpenMolcas/vectors/O2.0.4500.1B3g-5S.JobIph /scratch/tecumseh/WorkSpace/O2.0.4500/JOBIPH17

>>> COPY /home/tecumseh/project/molecule/O2/OpenMolcas/vectors/O2.0.4500.3B3g-6S.JobIph /scratch/tecumseh/WorkSpace/O2.0.4500/JOBIPH18

>>> COPY /home/tecumseh/project/molecule/O2/OpenMolcas/vectors/O2.0.4500.5B3g-1S.JobIph /scratch/tecumseh/WorkSpace/O2.0.4500/JOBIPH19

>>> COPY /home/tecumseh/project/molecule/O2/OpenMolcas/vectors/O2.0.4500.1Au-5S.JobIph /scratch/tecumseh/WorkSpace/O2.0.4500/JOBIPH20

>>> COPY /home/tecumseh/project/molecule/O2/OpenMolcas/vectors/O2.0.4500.3Au-6S.JobIph /scratch/tecumseh/WorkSpace/O2.0.4500/JOBIPH21

>>> COPY /home/tecumseh/project/molecule/O2/OpenMolcas/vectors/O2.0.4500.5Au-1S.JobIph /scratch/tecumseh/WorkSpace/O2.0.4500/JOBIPH22

--- Start Module: rassi at Thu Apr 17 10:55:31 2025 ---

()()()()()()()()()()()()()()()()()()()()()()()()()()()()()()()()()()()()()()()()()()()()()()()()()()

                                               &RASSI

                                   only a single process is used
                       available to each process: 2.0 GB of memory, 1 thread?
                                            pid: 298249
()()()()()()()()()()()()()()()()()()()()()()()()()()()()()()()()()()()()()()()()()()()()()()()()()()


      ********************************************************************************
      *                                                                              *
      *                             General data section                             *
      *                                                                              *
      ********************************************************************************

   Specific data for JOBIPH file JOBIPH
   -------------------------------------

   Header from SEWARD:
                            O2, D2h symmetry, aug-cc-pVTZ                      
        Integrals generated by Gateway/Seward, Wed Apr 16 15:36:23 2025        

   CASSCF title (first line only):
       O2, 1Ag 12S                                                             

  STATE IRREP:                1
  SPIN MULTIPLICITY:          1
  ACTIVE ELECTRONS:          12
  MAX RAS1 HOLES:             0
  MAX RAS3 ELECTRONS:         0
  NR OF CONFIG:              60

   Specific data for JOBIPH file JOBIPH01
   -------------------------------------

   Header from SEWARD:
                            O2, D2h symmetry, aug-cc-pVTZ                      
        Integrals generated by Gateway/Seward, Wed Apr 16 15:36:23 2025        

   CASSCF title (first line only):
       O2, 3Ag  3S                                                             

  STATE IRREP:                1
  SPIN MULTIPLICITY:          3
  ACTIVE ELECTRONS:          12
  MAX RAS1 HOLES:             0
  MAX RAS3 ELECTRONS:         0
  NR OF CONFIG:              42

   Specific data for JOBIPH file JOBIPH02
   -------------------------------------

   Header from SEWARD:
                            O2, D2h symmetry, aug-cc-pVTZ                      
        Integrals generated by Gateway/Seward, Wed Apr 16 15:36:23 2025        

   CASSCF title (first line only):
       O2, 5Ag  3S                                                             

  STATE IRREP:                1
  SPIN MULTIPLICITY:          5
  ACTIVE ELECTRONS:          12
  MAX RAS1 HOLES:             0
  MAX RAS3 ELECTRONS:         0
  NR OF CONFIG:              10

   Specific data for JOBIPH file JOBIPH03
   -------------------------------------

   Header from SEWARD:
                            O2, D2h symmetry, aug-cc-pVTZ                      
        Integrals generated by Gateway/Seward, Thu Apr 17 10:55:21 2025        

   CASSCF title (first line only):
       O2, 1B3u 5S                                                             

  STATE IRREP:                2
  SPIN MULTIPLICITY:          1
  ACTIVE ELECTRONS:          12
  MAX RAS1 HOLES:             0
  MAX RAS3 ELECTRONS:         0
  NR OF CONFIG:              40

   Specific data for JOBIPH file JOBIPH04
   -------------------------------------

   Header from SEWARD:
                            O2, D2h symmetry, aug-cc-pVTZ                      
        Integrals generated by Gateway/Seward, Wed Apr 16 15:36:23 2025        

   CASSCF title (first line only):
       O2, 3B3u 6S                                                             

  STATE IRREP:                2
  SPIN MULTIPLICITY:          3
  ACTIVE ELECTRONS:          12
  MAX RAS1 HOLES:             0
  MAX RAS3 ELECTRONS:         0
  NR OF CONFIG:              48

   Specific data for JOBIPH file JOBIPH05
   -------------------------------------

   Header from SEWARD:
                            O2, D2h symmetry, aug-cc-pVTZ                      
        Integrals generated by Gateway/Seward, Wed Apr 16 15:36:23 2025        

   CASSCF title (first line only):
       O2, 5B3u 1S                                                             

  STATE IRREP:                2
  SPIN MULTIPLICITY:          5
  ACTIVE ELECTRONS:          12
  MAX RAS1 HOLES:             0
  MAX RAS3 ELECTRONS:         0
  NR OF CONFIG:               8

   Specific data for JOBIPH file JOBIPH06
   -------------------------------------

   Header from SEWARD:
                            O2, D2h symmetry, aug-cc-pVTZ                      
        Integrals generated by Gateway/Seward, Thu Apr 17 10:55:21 2025        

   CASSCF title (first line only):
       O2, 1B2u 5S                                                             

  STATE IRREP:                3
  SPIN MULTIPLICITY:          1
  ACTIVE ELECTRONS:          12
  MAX RAS1 HOLES:             0
  MAX RAS3 ELECTRONS:         0
  NR OF CONFIG:              40

   Specific data for JOBIPH file JOBIPH07
   -------------------------------------

   Header from SEWARD:
                            O2, D2h symmetry, aug-cc-pVTZ                      
        Integrals generated by Gateway/Seward, Wed Apr 16 15:36:23 2025        

   CASSCF title (first line only):
       O2, 3B2u 6S                                                             

  STATE IRREP:                3
  SPIN MULTIPLICITY:          3
  ACTIVE ELECTRONS:          12
  MAX RAS1 HOLES:             0
  MAX RAS3 ELECTRONS:         0
  NR OF CONFIG:              48

   Specific data for JOBIPH file JOBIPH08
   -------------------------------------

   Header from SEWARD:
                            O2, D2h symmetry, aug-cc-pVTZ                      
        Integrals generated by Gateway/Seward, Wed Apr 16 15:36:23 2025        

   CASSCF title (first line only):
       O2, 5B2u 1S                                                             

  STATE IRREP:                3
  SPIN MULTIPLICITY:          5
  ACTIVE ELECTRONS:          12
  MAX RAS1 HOLES:             0
  MAX RAS3 ELECTRONS:         0
  NR OF CONFIG:               8

   Specific data for JOBIPH file JOBIPH09
   -------------------------------------

   Header from SEWARD:
                            O2, D2h symmetry, aug-cc-pVTZ                      
        Integrals generated by Gateway/Seward, Wed Apr 16 15:36:23 2025        

   CASSCF title (first line only):
       O2, 1B1g 5S                                                             

  STATE IRREP:                4
  SPIN MULTIPLICITY:          1
  ACTIVE ELECTRONS:          12
  MAX RAS1 HOLES:             0
  MAX RAS3 ELECTRONS:         0
  NR OF CONFIG:              36

   Specific data for JOBIPH file JOBIPH10
   -------------------------------------

   Header from SEWARD:
                            O2, D2h symmetry, aug-cc-pVTZ                      
        Integrals generated by Gateway/Seward, Wed Apr 16 15:36:23 2025        

   CASSCF title (first line only):
       O2, 3B1g 6S                                                             

  STATE IRREP:                4
  SPIN MULTIPLICITY:          3
  ACTIVE ELECTRONS:          12
  MAX RAS1 HOLES:             0
  MAX RAS3 ELECTRONS:         0
  NR OF CONFIG:              48

   Specific data for JOBIPH file JOBIPH11
   -------------------------------------

   Header from SEWARD:
                            O2, D2h symmetry, aug-cc-pVTZ                      
        Integrals generated by Gateway/Seward, Wed Apr 16 15:36:23 2025        

   CASSCF title (first line only):
       O2, 5B1g 1S                                                             

  STATE IRREP:                4
  SPIN MULTIPLICITY:          5
  ACTIVE ELECTRONS:          12
  MAX RAS1 HOLES:             0
  MAX RAS3 ELECTRONS:         0
  NR OF CONFIG:              12

   Specific data for JOBIPH file JOBIPH12
   -------------------------------------

   Header from SEWARD:
                            O2, D2h symmetry, aug-cc-pVTZ                      
        Integrals generated by Gateway/Seward, Thu Apr 17 10:55:21 2025        

   CASSCF title (first line only):
       O2, 1B1u 3S                                                             

  STATE IRREP:                5
  SPIN MULTIPLICITY:          1
  ACTIVE ELECTRONS:          12
  MAX RAS1 HOLES:             0
  MAX RAS3 ELECTRONS:         0
  NR OF CONFIG:              44

   Specific data for JOBIPH file JOBIPH13
   -------------------------------------

   Header from SEWARD:
                            O2, D2h symmetry, aug-cc-pVTZ                      
        Integrals generated by Gateway/Seward, Wed Apr 16 15:36:23 2025        

   CASSCF title (first line only):
       O2, 3B1u 6S                                                             

  STATE IRREP:                5
  SPIN MULTIPLICITY:          3
  ACTIVE ELECTRONS:          12
  MAX RAS1 HOLES:             0
  MAX RAS3 ELECTRONS:         0
  NR OF CONFIG:              48

   Specific data for JOBIPH file JOBIPH14
   -------------------------------------

   Header from SEWARD:
                            O2, D2h symmetry, aug-cc-pVTZ                      
        Integrals generated by Gateway/Seward, Wed Apr 16 15:36:23 2025        

   CASSCF title (first line only):
       O2, 1B2g 5S                                                             

  STATE IRREP:                6
  SPIN MULTIPLICITY:          1
  ACTIVE ELECTRONS:          12
  MAX RAS1 HOLES:             0
  MAX RAS3 ELECTRONS:         0
  NR OF CONFIG:              40

   Specific data for JOBIPH file JOBIPH15
   -------------------------------------

   Header from SEWARD:
                            O2, D2h symmetry, aug-cc-pVTZ                      
        Integrals generated by Gateway/Seward, Wed Apr 16 15:36:23 2025        

   CASSCF title (first line only):
       O2, 3B2g 6S                                                             

  STATE IRREP:                6
  SPIN MULTIPLICITY:          3
  ACTIVE ELECTRONS:          12
  MAX RAS1 HOLES:             0
  MAX RAS3 ELECTRONS:         0
  NR OF CONFIG:              48

   Specific data for JOBIPH file JOBIPH16
   -------------------------------------

   Header from SEWARD:
                            O2, D2h symmetry, aug-cc-pVTZ                      
        Integrals generated by Gateway/Seward, Wed Apr 16 15:36:23 2025        

   CASSCF title (first line only):
       O2, 5B2g 1S                                                             

  STATE IRREP:                6
  SPIN MULTIPLICITY:          5
  ACTIVE ELECTRONS:          12
  MAX RAS1 HOLES:             0
  MAX RAS3 ELECTRONS:         0
  NR OF CONFIG:               8

   Specific data for JOBIPH file JOBIPH17
   -------------------------------------

   Header from SEWARD:
                            O2, D2h symmetry, aug-cc-pVTZ                      
        Integrals generated by Gateway/Seward, Wed Apr 16 15:36:23 2025        

   CASSCF title (first line only):
       O2, 1B3g 5S                                                             

  STATE IRREP:                7
  SPIN MULTIPLICITY:          1
  ACTIVE ELECTRONS:          12
  MAX RAS1 HOLES:             0
  MAX RAS3 ELECTRONS:         0
  NR OF CONFIG:              40

   Specific data for JOBIPH file JOBIPH18
   -------------------------------------

   Header from SEWARD:
                            O2, D2h symmetry, aug-cc-pVTZ                      
        Integrals generated by Gateway/Seward, Wed Apr 16 15:36:23 2025        

   CASSCF title (first line only):
       O2, 3B3g 6S                                                             

  STATE IRREP:                7
  SPIN MULTIPLICITY:          3
  ACTIVE ELECTRONS:          12
  MAX RAS1 HOLES:             0
  MAX RAS3 ELECTRONS:         0
  NR OF CONFIG:              48

   Specific data for JOBIPH file JOBIPH19
   -------------------------------------

   Header from SEWARD:
                            O2, D2h symmetry, aug-cc-pVTZ                      
        Integrals generated by Gateway/Seward, Wed Apr 16 15:36:23 2025        

   CASSCF title (first line only):
       O2, 5B3g 1S                                                             

  STATE IRREP:                7
  SPIN MULTIPLICITY:          5
  ACTIVE ELECTRONS:          12
  MAX RAS1 HOLES:             0
  MAX RAS3 ELECTRONS:         0
  NR OF CONFIG:               8

   Specific data for JOBIPH file JOBIPH20
   -------------------------------------

   Header from SEWARD:
                            O2, D2h symmetry, aug-cc-pVTZ                      
        Integrals generated by Gateway/Seward, Thu Apr 17 10:55:21 2025        

   CASSCF title (first line only):
       O2, 1Au 5S                                                              

  STATE IRREP:                8
  SPIN MULTIPLICITY:          1
  ACTIVE ELECTRONS:          12
  MAX RAS1 HOLES:             0
  MAX RAS3 ELECTRONS:         0
  NR OF CONFIG:              36

   Specific data for JOBIPH file JOBIPH21
   -------------------------------------

   Header from SEWARD:
                            O2, D2h symmetry, aug-cc-pVTZ                      
        Integrals generated by Gateway/Seward, Wed Apr 16 15:36:23 2025        

   CASSCF title (first line only):
       O2, 3Au 6S                                                              

  STATE IRREP:                8
  SPIN MULTIPLICITY:          3
  ACTIVE ELECTRONS:          12
  MAX RAS1 HOLES:             0
  MAX RAS3 ELECTRONS:         0
  NR OF CONFIG:              48

   Specific data for JOBIPH file JOBIPH22
   -------------------------------------

   Header from SEWARD:
                            O2, D2h symmetry, aug-cc-pVTZ                      
        Integrals generated by Gateway/Seward, Wed Apr 16 15:36:23 2025        

   CASSCF title (first line only):
       O2, 5Au 1S                                                              

  STATE IRREP:                8
  SPIN MULTIPLICITY:          5
  ACTIVE ELECTRONS:          12
  MAX RAS1 HOLES:             0
  MAX RAS3 ELECTRONS:         0
  NR OF CONFIG:              12
 ###############################################################################
 ###############################################################################
 ###                                                                         ###
 ###                                                                         ###
 ###    WARNING: EJOB used when HEFF is available, possible                  ###
 ###    extra interaction between states is ignored!                         ###
 ###                                                                         ###
 ###                                                                         ###
 ###############################################################################
 ###############################################################################

   The following data are common to all the states:
   ------------------------------------------------
   (note: frozen counts as inactive, deleted as secondary)

      Nr of irreps: 8

                 Total     No./Irrep 
      Irrep                  1   2   3   4   5   6   7   8
                            ag b3u b2u b1g b1u b2g b3g  au

      INACTIVE       2       1   0   0   0   1   0   0   0
      ACTIVE         8       2   1   1   0   2   1   1   0
      SECONDARY     82      16  10  10   5  16  10  10   5
      BASIS         92      19  11  11   5  19  11  11   5

      RAS1           0       0   0   0   0   0   0   0   0
      RAS2           8       2   1   1   0   2   1   1   0
      RAS3           0       0   0   0   0   0   0   0   0

        MATRIX ELEMENTS WILL BE COMPUTED FOR THE FOLLOWING ONE-ELECTRON OPERATORS, UNLESS ZERO BY SYMMETRY.
   (Herm=Hermitian, Anti=Antihermitian, Sing=Singlet operator, Trip=Triplet operator)
     MLTPL  0   1 (HERMSING)     MLTPL  1   1 (HERMSING)     MLTPL  1   2 (HERMSING)
     MLTPL  1   3 (HERMSING)     MLTPL  2   1 (HERMSING)     MLTPL  2   2 (HERMSING)
     MLTPL  2   3 (HERMSING)     MLTPL  2   4 (HERMSING)     MLTPL  2   5 (HERMSING)
     MLTPL  2   6 (HERMSING)     VELOCITY   1 (ANTISING)     VELOCITY   2 (ANTISING)
     VELOCITY   3 (ANTISING)     ANGMOM     1 (ANTISING)     ANGMOM     2 (ANTISING)
     ANGMOM     3 (ANTISING)     MLTPV  2   1 (ANTISING)     MLTPV  2   2 (ANTISING)
     MLTPV  2   3 (ANTISING)     MLTPV  2   4 (ANTISING)     MLTPV  2   5 (ANTISING)
     MLTPV  2   6 (ANTISING)

       EIGENSTATES OF A SPIN-FREE HAMILTONIAN WILL BE COMPUTED BASED ON:

  a Hamiltonian matrix assumed to be diagonal with energies read from the wavefunction file(s).

  Nr of states:                   99

   State:        1   2   3   4   5   6   7   8   9  10  11  12  13  14  15  16  17  18  19  20
  JobIph:        1   1   1   1   1   1   1   1   1   1   1   1   2   2   2   3   3   3   4   4
 Root nr:        1   2   3   4   5   6   7   8   9  10  11  12   1   2   3   1   2   3   1   2

   State:       21  22  23  24  25  26  27  28  29  30  31  32  33  34  35  36  37  38  39  40
  JobIph:        4   4   4   5   5   5   5   5   5   6   7   7   7   7   7   8   8   8   8   8
 Root nr:        3   4   5   1   2   3   4   5   6   1   1   2   3   4   5   1   2   3   4   5

   State:       41  42  43  44  45  46  47  48  49  50  51  52  53  54  55  56  57  58  59  60
  JobIph:        8   9  10  10  10  10  10  11  11  11  11  11  11  12  13  13  13  14  14  14
 Root nr:        6   1   1   2   3   4   5   1   2   3   4   5   6   1   1   2   3   1   2   3

   State:       61  62  63  64  65  66  67  68  69  70  71  72  73  74  75  76  77  78  79  80
  JobIph:       14  14  14  15  15  15  15  15  16  16  16  16  16  16  17  18  18  18  18  18
 Root nr:        4   5   6   1   2   3   4   5   1   2   3   4   5   6   1   1   2   3   4   5

   State:       81  82  83  84  85  86  87  88  89  90  91  92  93  94  95  96  97  98  99
  JobIph:       19  19  19  19  19  19  20  21  21  21  21  21  22  22  22  22  22  22  23
 Root nr:        1   2   3   4   5   6   1   1   2   3   4   5   1   2   3   4   5   6   1

  HAMILTONIAN MATRIX FOR THE ORIGINAL STATES:

  Diagonal, with energies
   -149.40548213   -149.37831867   -148.21143698   -148.12602146   -148.09819194
   -147.71628236   -147.28922669   -147.25390456   -146.97943018   -146.93846726
   -146.89610654   -146.56585406   -147.37428569   -147.34138557   -147.16375200
   -147.15406201   -147.14588710   -146.15988619   -148.60692453   -148.09622574
   -148.01841387   -146.95965030   -146.94253930   -148.73020376   -148.19346626
   -148.10467594   -147.14202492   -147.03114334   -146.98981560   -147.12083438
   -148.60692453   -148.09622574   -148.01841387   -146.95965030   -146.94253930
   -148.73020376   -148.19346626   -148.10467594   -147.14202492   -147.03114334
   -146.98981560   -147.12083438   -149.40548213   -148.12602146   -147.28922669
   -147.20816573   -146.93846726   -149.44754903   -148.19090662   -147.37428569
   -147.35590918   -147.29068365   -147.08641959   -147.52629279   -148.64429443
   -148.59090264   -147.78768494   -148.91601630   -148.90742525   -148.17760232
   -147.54722584   -147.51560992   -147.03324739   -148.78320131   -148.03521492
   -147.58280822   -147.51560212   -147.50343856   -148.83541753   -148.07645234
   -147.74571001   -147.63478200   -147.59090894   -147.54968659   -147.71703475
   -148.78320131   -148.03521492   -147.58280822   -147.51560212   -147.50343856
   -148.83541753   -148.07645234   -147.74571001   -147.63478200   -147.59090894
   -147.54968659   -147.71703475   -148.92842531   -148.64429443   -147.45142256
   -147.29876302   -146.85419166   -148.91601630   -148.73149936   -147.54722584
   -147.52043192   -147.33853897   -146.92429885   -147.65763996

      OVERLAP MATRIX FOR THE ORIGINAL STATES:

  Diagonal, with elements
      1.00000000      1.00000000      1.00000000      1.00000000      1.00000000
      1.00000000      1.00000000      1.00000000      1.00000000      1.00000000
      1.00000000      1.00000000      1.00000000      1.00000000      1.00000000
      1.00000000      1.00000000      1.00000000      1.00000000      1.00000000
      1.00000000      1.00000000      1.00000000      1.00000000      1.00000000
      1.00000000      1.00000000      1.00000000      1.00000000      1.00000000
      1.00000000      1.00000000      1.00000000      1.00000000      1.00000000
      1.00000000      1.00000000      1.00000000      1.00000000      1.00000000
      1.00000000      1.00000000      1.00000000      1.00000000      1.00000000
      1.00000000      1.00000000      1.00000000      1.00000000      1.00000000
      1.00000000      1.00000000      1.00000000      1.00000000      1.00000000
      1.00000000      1.00000000      1.00000000      1.00000000      1.00000000
      1.00000000      1.00000000      1.00000000      1.00000000      1.00000000
      1.00000000      1.00000000      1.00000000      1.00000000      1.00000000
      1.00000000      1.00000000      1.00000000      1.00000000      1.00000000
      1.00000000      1.00000000      1.00000000      1.00000000      1.00000000
      1.00000000      1.00000000      1.00000000      1.00000000      1.00000000
      1.00000000      1.00000000      1.00000000      1.00000000      1.00000000
      1.00000000      1.00000000      1.00000000      1.00000000      1.00000000
      1.00000000      1.00000000      1.00000000      1.00000000

::    RASSI State    1     Total energy:    -149.40548213001708
::    RASSI State    2     Total energy:    -149.37831867289341
::    RASSI State    3     Total energy:    -148.21143697561760
::    RASSI State    4     Total energy:    -148.12602145716386
::    RASSI State    5     Total energy:    -148.09819193661355
::    RASSI State    6     Total energy:    -147.71628236237720
::    RASSI State    7     Total energy:    -147.28922668842222
::    RASSI State    8     Total energy:    -147.25390455589607
::    RASSI State    9     Total energy:    -146.97943017863875
::    RASSI State   10     Total energy:    -146.93846726201468
::    RASSI State   11     Total energy:    -146.89610653838400
::    RASSI State   12     Total energy:    -146.56585405891542
::    RASSI State   13     Total energy:    -147.37428569379881
::    RASSI State   14     Total energy:    -147.34138556761170
::    RASSI State   15     Total energy:    -147.16375200411306
::    RASSI State   16     Total energy:    -147.15406201125799
::    RASSI State   17     Total energy:    -147.14588709732763
::    RASSI State   18     Total energy:    -146.15988619418277
::    RASSI State   19     Total energy:    -148.60692452519368
::    RASSI State   20     Total energy:    -148.09622573728677
::    RASSI State   21     Total energy:    -148.01841387469804
::    RASSI State   22     Total energy:    -146.95965030270520
::    RASSI State   23     Total energy:    -146.94253929599196
::    RASSI State   24     Total energy:    -148.73020375925654
::    RASSI State   25     Total energy:    -148.19346625936345
::    RASSI State   26     Total energy:    -148.10467593731786
::    RASSI State   27     Total energy:    -147.14202492450815
::    RASSI State   28     Total energy:    -147.03114333548154
::    RASSI State   29     Total energy:    -146.98981559519797
::    RASSI State   30     Total energy:    -147.12083437606472
::    RASSI State   31     Total energy:    -148.60692452519385
::    RASSI State   32     Total energy:    -148.09622573728674
::    RASSI State   33     Total energy:    -148.01841387469835
::    RASSI State   34     Total energy:    -146.95965030270494
::    RASSI State   35     Total energy:    -146.94253929599205
::    RASSI State   36     Total energy:    -148.73020375925665
::    RASSI State   37     Total energy:    -148.19346625936339
::    RASSI State   38     Total energy:    -148.10467593731769
::    RASSI State   39     Total energy:    -147.14202492450818
::    RASSI State   40     Total energy:    -147.03114333548163
::    RASSI State   41     Total energy:    -146.98981559519783
::    RASSI State   42     Total energy:    -147.12083437606483
::    RASSI State   43     Total energy:    -149.40548213001711
::    RASSI State   44     Total energy:    -148.12602145716392
::    RASSI State   45     Total energy:    -147.28922668842213
::    RASSI State   46     Total energy:    -147.20816572901506
::    RASSI State   47     Total energy:    -146.93846726201468
::    RASSI State   48     Total energy:    -149.44754902834950
::    RASSI State   49     Total energy:    -148.19090662251622
::    RASSI State   50     Total energy:    -147.37428569379867
::    RASSI State   51     Total energy:    -147.35590918393981
::    RASSI State   52     Total energy:    -147.29068364783663
::    RASSI State   53     Total energy:    -147.08641959467710
::    RASSI State   54     Total energy:    -147.52629278873709
::    RASSI State   55     Total energy:    -148.64429443311317
::    RASSI State   56     Total energy:    -148.59090264489873
::    RASSI State   57     Total energy:    -147.78768494411472
::    RASSI State   58     Total energy:    -148.91601630312633
::    RASSI State   59     Total energy:    -148.90742525383158
::    RASSI State   60     Total energy:    -148.17760232483110
::    RASSI State   61     Total energy:    -147.54722583964141
::    RASSI State   62     Total energy:    -147.51560991872771
::    RASSI State   63     Total energy:    -147.03324738789590
::    RASSI State   64     Total energy:    -148.78320131169329
::    RASSI State   65     Total energy:    -148.03521491892093
::    RASSI State   66     Total energy:    -147.58280822106335
::    RASSI State   67     Total energy:    -147.51560212333843
::    RASSI State   68     Total energy:    -147.50343855973779
::    RASSI State   69     Total energy:    -148.83541752716053
::    RASSI State   70     Total energy:    -148.07645234388335
::    RASSI State   71     Total energy:    -147.74571000878706
::    RASSI State   72     Total energy:    -147.63478199773294
::    RASSI State   73     Total energy:    -147.59090893858226
::    RASSI State   74     Total energy:    -147.54968658811850
::    RASSI State   75     Total energy:    -147.71703474658432
::    RASSI State   76     Total energy:    -148.78320131169329
::    RASSI State   77     Total energy:    -148.03521491892090
::    RASSI State   78     Total energy:    -147.58280822106343
::    RASSI State   79     Total energy:    -147.51560212333840
::    RASSI State   80     Total energy:    -147.50343855973765
::    RASSI State   81     Total energy:    -148.83541752716053
::    RASSI State   82     Total energy:    -148.07645234388335
::    RASSI State   83     Total energy:    -147.74571000878706
::    RASSI State   84     Total energy:    -147.63478199773306
::    RASSI State   85     Total energy:    -147.59090893858243
::    RASSI State   86     Total energy:    -147.54968658811853
::    RASSI State   87     Total energy:    -147.71703474658440
::    RASSI State   88     Total energy:    -148.92842531326085
::    RASSI State   89     Total energy:    -148.64429443311320
::    RASSI State   90     Total energy:    -147.45142255675808
::    RASSI State   91     Total energy:    -147.29876302318547
::    RASSI State   92     Total energy:    -146.85419166234797
::    RASSI State   93     Total energy:    -148.91601630312633
::    RASSI State   94     Total energy:    -148.73149936408092
::    RASSI State   95     Total energy:    -147.54722583964127
::    RASSI State   96     Total energy:    -147.52043191591113
::    RASSI State   97     Total energy:    -147.33853896514594
::    RASSI State   98     Total energy:    -146.92429885350407
::    RASSI State   99     Total energy:    -147.65763995978003



      ****************************************************************************************************
      *                                                                                                  *
      *                                         Spin-free section                                        *
      *                                                                                                  *
      *                 Note: index according to input order, order according to energy.                 *
      *                                                                                                  *
      ****************************************************************************************************



  SPIN-FREE ENERGIES:
  (Shifted by EMIN (a.u.) =       -149.4475490283)

 SF State       Relative EMIN(au)   Rel lowest level(eV)    D:o, cm**(-1)      L_eff   Abs_M

    48             0.0000000000        0.0000000000              0.0000         1.3     0.0
    43             0.0420668983        1.1446986187           9232.6170         2.2     2.0
     1             0.0420668983        1.1446986187           9232.6170         2.2     2.0
     2             0.0692303555        1.8838539423          15194.3067         1.2     0.0
    88             0.5191237151       14.1260759207         113934.4860         1.1     0.0
    58             0.5315327252       14.4637422884         116657.9489         2.0     2.0
    93             0.5315327252       14.4637422884         116657.9489         2.0     2.0
    59             0.5401237745       14.6975166490         118543.4663         1.0     0.0
    69             0.6121315012       16.6569467122         134347.3356         1.1     1.0
    81             0.6121315012       16.6569467122         134347.3356         1.1     1.0
    64             0.6643477167       18.0778223196         145807.4702         2.3     1.0
    76             0.6643477167       18.0778223196         145807.4702         2.3     1.0
    94             0.7160496643       19.4847039857         157154.7361         1.0     0.0
    36             0.7173452691       19.5199591890         157439.0885         1.6     1.0
    24             0.7173452691       19.5199591890         157439.0885         1.6     1.0
    89             0.8032545952       21.8576710448         176294.0062         2.0     2.0
    55             0.8032545952       21.8576710448         176294.0062         2.0     2.0
    31             0.8406245032       22.8745580432         184495.7529         1.2     1.0
    19             0.8406245032       22.8745580432         184495.7529         1.2     1.0
    56             0.8566463835       23.3105356163         188012.1492         1.2     0.0
     3             1.2361120527       33.6363225102         271295.2371         1.7     0.0
    25             1.2540827690       34.1253306113         275239.3534         1.4     1.0
    37             1.2540827690       34.1253306113         275239.3534         1.4     1.0
    49             1.2566424058       34.1949818782         275801.1288         0.8     0.0
    60             1.2699467035       34.5570102612         278721.0846         1.5     0.0
    44             1.3215275712       35.9605971742         290041.7765         1.9     2.0
     4             1.3215275712       35.9605971742         290041.7765         1.9     2.0
    26             1.3428730910       36.5414383594         294726.5766         1.7     1.0
    38             1.3428730910       36.5414383594         294726.5766         1.7     1.0
     5             1.3493570917       36.7178770070         296149.6503         1.1     0.0
    20             1.3513232911       36.7713800163         296581.1812         1.9     1.0
    32             1.3513232911       36.7713800163         296581.1812         1.9     1.0
    70             1.3710966845       37.3094414616         300920.9394         0.9     1.0
    82             1.3710966845       37.3094414616         300920.9394         0.9     1.0
    65             1.4123341094       38.4315689600         309971.5080         1.7     1.0
    77             1.4123341094       38.4315689600         309971.5080         1.7     1.0
    33             1.4291351537       38.8887486637         313658.9110         1.4     1.0
    21             1.4291351537       38.8887486637         313658.9110         1.4     1.0
    57             1.6598640842       45.1672027119         364298.0580         1.4     0.0
    71             1.7018390196       46.3093988898         373510.4915         1.1     1.0
    83             1.7018390196       46.3093988898         373510.4915         1.1     1.0
    87             1.7305142818       47.0896925253         379803.9841         1.4     1.0
    75             1.7305142818       47.0896925253         379803.9841         1.4     1.0
     6             1.7312666660       47.1101659426         379969.1133         1.1     0.0
    99             1.7899090686       48.7059070100         392839.6330         0.0     0.0
    84             1.8127670306       49.3279038441         397856.3758         1.4     1.0
    72             1.8127670306       49.3279038441         397856.3758         1.4     1.0
    85             1.8566400898       50.5217506024         407485.3993         2.7     3.0
    73             1.8566400898       50.5217506024         407485.3993         2.7     3.0
    78             1.8647408073       50.7421823557         409263.3013         1.3     1.0
    66             1.8647408073       50.7421823557         409263.3013         1.3     1.0
    86             1.8978624402       51.6434679029         416532.6594         1.0     1.0
    74             1.8978624402       51.6434679029         416532.6594         1.0     1.0
    61             1.9003231887       51.7104282801         417072.7313         1.9     2.0
    95             1.9003231887       51.7104282801         417072.7313         1.9     2.0
    54             1.9212562396       52.2800456136         421667.0049         1.0     0.0
    96             1.9271171124       52.4395280878         422953.3178         1.3     0.0
    62             1.9319391096       52.5707413156         424011.6239         0.7     0.0
    67             1.9319469050       52.5709534390         424013.3348         1.2     1.0
    79             1.9319469050       52.5709534390         424013.3348         1.2     1.0
    68             1.9441104686       52.9019408662         426682.9284         3.0     3.0
    80             1.9441104686       52.9019408663         426682.9284         3.0     3.0
    90             1.9961264716       54.3173684143         438099.1215         1.5     0.0
    13             2.0732633346       56.4163693861         455028.7061         1.9     2.0
    50             2.0732633346       56.4163693861         455028.7061         1.9     2.0
    51             2.0916398444       56.9164196937         459061.8838         0.9     0.0
    14             2.1061634607       57.3116274273         462249.4491         0.5     0.0
    97             2.1090100632       57.3890874265         462874.2062         0.6     0.0
    91             2.1487860052       58.4714459465         471604.0164         0.7     0.0
    52             2.1568653805       58.6912969497         473377.2343         0.4     0.0
     7             2.1583223399       58.7309428351         473696.9999         1.8     2.0
    45             2.1583223399       58.7309428351         473696.9999         1.8     2.0
     8             2.1936444725       59.6921070263         481449.3119         0.2     0.0
    46             2.2393832993       60.9367239110         491487.8241         0.5     0.0
    15             2.2837970242       62.1452829339         501235.5100         1.1     0.0
    16             2.2934870171       62.4089610722         503362.2176         0.7     0.0
    17             2.3016619310       62.6314118127         505156.4038         0.7     0.0
    39             2.3055241038       62.7365068890         506004.0528         0.9     1.0
    27             2.3055241038       62.7365068890         506004.0528         0.9     1.0
    42             2.3267146523       63.3131310875         510654.8406         0.6     1.0
    30             2.3267146523       63.3131310875         510654.8406         0.6     1.0
    53             2.3611294337       64.2496049964         518208.0121         1.2     0.0
    63             2.4143016405       65.6964944527         529877.9625         0.8     0.0
    40             2.4164056929       65.7537486356         530339.7487         0.9     1.0
    28             2.4164056929       65.7537486356         530339.7487         0.9     1.0
    29             2.4577334332       66.8783337391         539410.1392         2.6     3.0
    41             2.4577334332       66.8783337392         539410.1392         2.6     3.0
     9             2.4681188497       67.1609353205         541689.4747         0.9     0.0
    22             2.4878987256       67.6991731644         546030.6557         0.8     1.0
    34             2.4878987256       67.6991731644         546030.6557         0.8     1.0
    35             2.5050097324       68.1647873771         549786.0876         0.9     1.0
    23             2.5050097324       68.1647873771         549786.0876         0.9     1.0
    10             2.5090817663       68.2755930665         550679.7957         2.2     2.0
    47             2.5090817663       68.2755930665         550679.7957         2.2     2.0
    98             2.5232501748       68.6611351030         553789.4020         0.8     0.0
    11             2.5514424900       69.4282870789         559976.8999         0.9     0.0
    92             2.5933573660       70.5688489601         569176.1519         0.8     0.0
    12             2.8816949694       78.4149148564         632458.9411         0.3     0.0
    18             3.2876628342       89.4618632271         721558.5886         0.0     0.0

++ Dipole transition strengths (spin-free states):
   -----------------------------------------------
     for osc. strength at least  1.00000000E-05

      From   To        Osc. strength     Einstein coefficients Ax, Ay, Az (sec-1)    Total A (sec-1)
     -----------------------------------------------------------------------------------------------
        48   94       4.32928213E-01  0.00000000E+00  0.00000000E+00  7.13202837E+09  7.13202837E+09
        48   36       1.77097438E-01  2.92805776E+09  0.00000000E+00  0.00000000E+00  2.92805776E+09
        48   24       1.77097438E-01  0.00000000E+00  2.92805776E+09  0.00000000E+00  2.92805776E+09
        48   25       3.48018745E-03  0.00000000E+00  1.75859535E+08  0.00000000E+00  1.75859535E+08
        48   37       3.48018745E-03  1.75859535E+08  0.00000000E+00  0.00000000E+00  1.75859535E+08
        48   26       5.01449925E-02  0.00000000E+00  2.90541648E+09  0.00000000E+00  2.90541648E+09
        48   38       5.01449925E-02  2.90541648E+09  0.00000000E+00  0.00000000E+00  2.90541648E+09
        48   96       1.64483650E-02  0.00000000E+00  0.00000000E+00  1.96268152E+09  1.96268152E+09
        48   97       8.74863710E-01  0.00000000E+00  0.00000000E+00  1.25028376E+11  1.25028376E+11
        48   39       2.37897893E-04  4.06294378E+07  0.00000000E+00  0.00000000E+00  4.06294378E+07
        48   27       2.37897893E-04  0.00000000E+00  4.06294378E+07  0.00000000E+00  4.06294378E+07
        48   40       2.05637521E-04  3.85791756E+07  0.00000000E+00  0.00000000E+00  3.85791756E+07
        48   28       2.05637521E-04  0.00000000E+00  3.85791756E+07  0.00000000E+00  3.85791756E+07
        48   98       3.06135200E-02  0.00000000E+00  0.00000000E+00  6.26245727E+09  6.26245727E+09
        43   89       4.27691795E-01  0.00000000E+00  0.00000000E+00  7.96205772E+09  7.96205772E+09
        43   31       1.86409351E-01  3.81936423E+09  0.00000000E+00  0.00000000E+00  3.81936423E+09
        43   19       1.86409351E-01  0.00000000E+00  3.81936423E+09  0.00000000E+00  3.81936423E+09
        43   20       1.60541934E-02  0.00000000E+00  8.84196474E+08  0.00000000E+00  8.84196474E+08
        43   32       1.60541934E-02  8.84196474E+08  0.00000000E+00  0.00000000E+00  8.84196474E+08
        43   33       7.26626908E-02  4.49177532E+09  0.00000000E+00  0.00000000E+00  4.49177532E+09
        43   21       7.26626908E-02  0.00000000E+00  4.49177532E+09  0.00000000E+00  4.49177532E+09
        43   91       8.87610307E-01  0.00000000E+00  0.00000000E+00  1.26574578E+11  1.26574578E+11
        43   22       2.86158335E-04  0.00000000E+00  5.50009850E+07  0.00000000E+00  5.50009850E+07
        43   34       2.86158335E-04  5.50009850E+07  0.00000000E+00  0.00000000E+00  5.50009850E+07
        43   35       2.88917489E-04  5.63110179E+07  0.00000000E+00  0.00000000E+00  5.63110179E+07
        43   23       2.88917489E-04  0.00000000E+00  5.63110179E+07  0.00000000E+00  5.63110179E+07
         1   55       4.27691795E-01  0.00000000E+00  0.00000000E+00  7.96205772E+09  7.96205772E+09
         1   31       1.86409351E-01  0.00000000E+00  3.81936423E+09  0.00000000E+00  3.81936423E+09
         1   19       1.86409351E-01  3.81936423E+09  0.00000000E+00  0.00000000E+00  3.81936423E+09
         1   20       1.60541934E-02  8.84196474E+08  0.00000000E+00  0.00000000E+00  8.84196474E+08
         1   32       1.60541934E-02  0.00000000E+00  8.84196474E+08  0.00000000E+00  8.84196474E+08
         1   33       7.26626908E-02  0.00000000E+00  4.49177532E+09  0.00000000E+00  4.49177532E+09
         1   21       7.26626908E-02  4.49177532E+09  0.00000000E+00  0.00000000E+00  4.49177532E+09
         1   22       2.86158335E-04  5.50009850E+07  0.00000000E+00  0.00000000E+00  5.50009850E+07
         1   34       2.86158335E-04  0.00000000E+00  5.50009850E+07  0.00000000E+00  5.50009850E+07
         1   35       2.88917489E-04  0.00000000E+00  5.63110179E+07  0.00000000E+00  5.63110179E+07
         1   23       2.88917489E-04  5.63110179E+07  0.00000000E+00  0.00000000E+00  5.63110179E+07
         2   31       1.65266229E-01  0.00000000E+00  3.15971331E+09  0.00000000E+00  3.15971331E+09
         2   19       1.65266229E-01  3.15971331E+09  0.00000000E+00  0.00000000E+00  3.15971331E+09
         2   56       4.35437912E-01  0.00000000E+00  0.00000000E+00  8.67452340E+09  8.67452340E+09
         2   20       2.28536155E-02  1.20699318E+09  0.00000000E+00  0.00000000E+00  1.20699318E+09
         2   32       2.28536155E-02  0.00000000E+00  1.20699318E+09  0.00000000E+00  1.20699318E+09
         2   33       2.28297668E-02  0.00000000E+00  1.35652990E+09  0.00000000E+00  1.35652990E+09
         2   21       2.28297668E-02  1.35652990E+09  0.00000000E+00  0.00000000E+00  1.35652990E+09
         2   57       2.14834917E-02  0.00000000E+00  0.00000000E+00  1.74644988E+09  1.74644988E+09
         2   22       1.92969421E-04  3.62703734E+07  0.00000000E+00  0.00000000E+00  3.62703734E+07
         2   34       1.92969421E-04  0.00000000E+00  3.62703734E+07  0.00000000E+00  3.62703734E+07
         2   35       4.00755710E-04  0.00000000E+00  7.63952753E+07  0.00000000E+00  7.63952753E+07
         2   23       4.00755710E-04  7.63952753E+07  0.00000000E+00  0.00000000E+00  7.63952753E+07
        88   64       8.07889115E-03  0.00000000E+00  5.47443670E+06  0.00000000E+00  5.47443670E+06
        88   76       8.07889115E-03  5.47443670E+06  0.00000000E+00  0.00000000E+00  5.47443670E+06
        88   65       1.50295177E-01  0.00000000E+00  3.85268466E+09  0.00000000E+00  3.85268466E+09
        88   77       1.50295177E-01  3.85268466E+09  0.00000000E+00  0.00000000E+00  3.85268466E+09
        88   78       6.52571358E-03  3.79648668E+08  0.00000000E+00  0.00000000E+00  3.79648668E+08
        88   66       6.52571358E-03  0.00000000E+00  3.79648668E+08  0.00000000E+00  3.79648668E+08
        88   67       9.85790078E-02  0.00000000E+00  6.32223966E+09  0.00000000E+00  6.32223966E+09
        88   79       9.85790078E-02  6.32223966E+09  0.00000000E+00  0.00000000E+00  6.32223966E+09
        88   46       8.86276654E-03  0.00000000E+00  0.00000000E+00  8.42690630E+08  8.42690630E+08
        58   69       3.71962397E-03  7.76366547E+05  0.00000000E+00  0.00000000E+00  7.76366547E+05
        58   81       3.71962397E-03  0.00000000E+00  7.76366547E+05  0.00000000E+00  7.76366547E+05
        58   70       9.62847098E-02  2.18059887E+09  0.00000000E+00  0.00000000E+00  2.18059887E+09
        58   82       9.62847098E-02  0.00000000E+00  2.18059887E+09  0.00000000E+00  2.18059887E+09
        58   71       6.48218242E-02  2.85253652E+09  0.00000000E+00  0.00000000E+00  2.85253652E+09
        58   83       6.48218242E-02  0.00000000E+00  2.85253652E+09  0.00000000E+00  2.85253652E+09
        58   84       8.48515432E-03  0.00000000E+00  4.47535763E+08  0.00000000E+00  4.47535763E+08
        58   72       8.48515432E-03  4.47535763E+08  0.00000000E+00  0.00000000E+00  4.47535763E+08
        58   85       1.44335490E-02  0.00000000E+00  8.14303215E+08  0.00000000E+00  8.14303215E+08
        58   73       1.44335490E-02  8.14303215E+08  0.00000000E+00  0.00000000E+00  8.14303215E+08
        58   86       2.23308432E-02  0.00000000E+00  1.33945162E+09  0.00000000E+00  1.33945162E+09
        58   74       2.23308432E-02  1.33945162E+09  0.00000000E+00  0.00000000E+00  1.33945162E+09
        58   13       1.49749872E-03  0.00000000E+00  0.00000000E+00  1.14365315E+08  1.14365315E+08
        93   69       3.71962397E-03  0.00000000E+00  7.76366547E+05  0.00000000E+00  7.76366547E+05
        93   81       3.71962397E-03  7.76366547E+05  0.00000000E+00  0.00000000E+00  7.76366547E+05
        93   70       9.62847098E-02  0.00000000E+00  2.18059887E+09  0.00000000E+00  2.18059887E+09
        93   82       9.62847098E-02  2.18059887E+09  0.00000000E+00  0.00000000E+00  2.18059887E+09
        93   71       6.48218242E-02  0.00000000E+00  2.85253652E+09  0.00000000E+00  2.85253652E+09
        93   83       6.48218242E-02  2.85253652E+09  0.00000000E+00  0.00000000E+00  2.85253652E+09
        93   84       8.48515433E-03  4.47535763E+08  0.00000000E+00  0.00000000E+00  4.47535763E+08
        93   72       8.48515432E-03  0.00000000E+00  4.47535763E+08  0.00000000E+00  4.47535763E+08
        93   85       1.44335490E-02  8.14303215E+08  0.00000000E+00  0.00000000E+00  8.14303215E+08
        93   73       1.44335490E-02  0.00000000E+00  8.14303215E+08  0.00000000E+00  8.14303215E+08
        93   86       2.23308432E-02  1.33945162E+09  0.00000000E+00  0.00000000E+00  1.33945162E+09
        93   74       2.23308432E-02  0.00000000E+00  1.33945162E+09  0.00000000E+00  1.33945162E+09
        93   50       1.49749872E-03  0.00000000E+00  0.00000000E+00  1.14365315E+08  1.14365315E+08
        59   69       3.28343153E-03  5.47012244E+05  0.00000000E+00  0.00000000E+00  5.47012244E+05
        59   81       3.28343153E-03  0.00000000E+00  5.47012244E+05  0.00000000E+00  5.47012244E+05
        59   70       8.99576544E-02  1.99582628E+09  0.00000000E+00  0.00000000E+00  1.99582628E+09
        59   82       8.99576544E-02  0.00000000E+00  1.99582628E+09  0.00000000E+00  1.99582628E+09
        59   71       7.91590601E-02  3.43250271E+09  0.00000000E+00  0.00000000E+00  3.43250271E+09
        59   83       7.91590601E-02  0.00000000E+00  3.43250271E+09  0.00000000E+00  3.43250271E+09
        59   84       6.01954288E-03  0.00000000E+00  3.13247603E+08  0.00000000E+00  3.13247603E+08
        59   72       6.01954288E-03  3.13247603E+08  0.00000000E+00  0.00000000E+00  3.13247603E+08
        59   86       3.64542590E-02  0.00000000E+00  2.15919333E+09  0.00000000E+00  2.15919333E+09
        59   74       3.64542590E-02  2.15919333E+09  0.00000000E+00  0.00000000E+00  2.15919333E+09
        59   14       2.37544351E-03  0.00000000E+00  0.00000000E+00  1.87180722E+08  1.87180722E+08
        59   15       3.24807361E-03  0.00000000E+00  0.00000000E+00  3.17297723E+08  3.17297723E+08
        69   94       1.28940197E-03  0.00000000E+00  4.47385738E+05  0.00000000E+00  4.47385738E+05
        69   24       6.23938302E-02  0.00000000E+00  0.00000000E+00  2.21920630E+07  2.21920630E+07
        69   25       2.76405708E-01  0.00000000E+00  0.00000000E+00  3.65983927E+09  3.65983927E+09
        69   60       1.88029667E-01  2.61423769E+09  0.00000000E+00  0.00000000E+00  2.61423769E+09
        69   26       4.15821918E-03  0.00000000E+00  0.00000000E+00  7.13421037E+07  7.13421037E+07
        69   61       1.75249052E-02  9.34388632E+08  0.00000000E+00  0.00000000E+00  9.34388632E+08
        69   95       1.75249052E-02  0.00000000E+00  9.34388632E+08  0.00000000E+00  9.34388632E+08
        69   96       3.86495525E-02  0.00000000E+00  2.14732289E+09  0.00000000E+00  2.14732289E+09
        69   62       3.21726715E-02  1.80060836E+09  0.00000000E+00  0.00000000E+00  1.80060836E+09
        69   97       2.64115605E-02  0.00000000E+00  1.90142011E+09  0.00000000E+00  1.90142011E+09
        69   27       1.34124491E-04  0.00000000E+00  0.00000000E+00  1.23576043E+07  1.23576043E+07
        69   63       3.03043395E-03  3.16233071E+08  0.00000000E+00  0.00000000E+00  3.16233071E+08
        69   28       3.10453342E-05  0.00000000E+00  0.00000000E+00  3.24722436E+06  3.24722436E+06
        69   98       1.16196443E-04  0.00000000E+00  1.36357499E+07  0.00000000E+00  1.36357499E+07
        81   94       1.28940197E-03  4.47385738E+05  0.00000000E+00  0.00000000E+00  4.47385738E+05
        81   36       6.23938302E-02  0.00000000E+00  0.00000000E+00  2.21920630E+07  2.21920630E+07
        81   37       2.76405708E-01  0.00000000E+00  0.00000000E+00  3.65983927E+09  3.65983927E+09
        81   60       1.88029667E-01  0.00000000E+00  2.61423769E+09  0.00000000E+00  2.61423769E+09
        81   38       4.15821918E-03  0.00000000E+00  0.00000000E+00  7.13421037E+07  7.13421037E+07
        81   61       1.75249052E-02  0.00000000E+00  9.34388632E+08  0.00000000E+00  9.34388632E+08
        81   95       1.75249052E-02  9.34388632E+08  0.00000000E+00  0.00000000E+00  9.34388632E+08
        81   96       3.86495525E-02  2.14732289E+09  0.00000000E+00  0.00000000E+00  2.14732289E+09
        81   62       3.21726715E-02  0.00000000E+00  1.80060836E+09  0.00000000E+00  1.80060836E+09
        81   97       2.64115605E-02  1.90142011E+09  0.00000000E+00  0.00000000E+00  1.90142011E+09
        81   39       1.34124491E-04  0.00000000E+00  0.00000000E+00  1.23576043E+07  1.23576043E+07
        81   63       3.03043395E-03  0.00000000E+00  3.16233071E+08  0.00000000E+00  3.16233071E+08
        81   40       3.10453342E-05  0.00000000E+00  0.00000000E+00  3.24722436E+06  3.24722436E+06
        81   98       1.16196443E-04  1.36357499E+07  0.00000000E+00  0.00000000E+00  1.36357499E+07
        64   89       8.31077192E-04  0.00000000E+00  5.15228350E+05  0.00000000E+00  5.15228350E+05
        64   55       8.31077192E-04  5.15228350E+05  0.00000000E+00  0.00000000E+00  5.15228350E+05
        64   19       6.46030658E-02  0.00000000E+00  0.00000000E+00  6.44991901E+07  6.44991901E+07
        64   56       3.27944527E-04  3.89640254E+05  0.00000000E+00  0.00000000E+00  3.89640254E+05
        64   20       3.24943678E-01  0.00000000E+00  0.00000000E+00  4.92721561E+09  4.92721561E+09
        64   21       1.69982296E-02  0.00000000E+00  0.00000000E+00  3.19444978E+08  3.19444978E+08
        64   57       2.02396336E-01  6.44481327E+09  0.00000000E+00  0.00000000E+00  6.44481327E+09
        64   90       6.56989827E-02  0.00000000E+00  3.74398149E+09  0.00000000E+00  3.74398149E+09
        64   91       1.77670389E-02  0.00000000E+00  1.25791191E+09  0.00000000E+00  1.25791191E+09
        64   22       3.18519331E-04  0.00000000E+00  0.00000000E+00  3.40316112E+07  3.40316112E+07
        64   23       4.07474816E-03  0.00000000E+00  0.00000000E+00  4.43567538E+08  4.43567538E+08
        64   92       1.83379819E-05  0.00000000E+00  2.19245770E+06  0.00000000E+00  2.19245770E+06
        76   89       8.31077192E-04  5.15228350E+05  0.00000000E+00  0.00000000E+00  5.15228350E+05
        76   55       8.31077192E-04  0.00000000E+00  5.15228350E+05  0.00000000E+00  5.15228350E+05
        76   31       6.46030658E-02  0.00000000E+00  0.00000000E+00  6.44991901E+07  6.44991901E+07
        76   56       3.27944527E-04  0.00000000E+00  3.89640254E+05  0.00000000E+00  3.89640254E+05
        76   32       3.24943678E-01  0.00000000E+00  0.00000000E+00  4.92721561E+09  4.92721561E+09
        76   33       1.69982296E-02  0.00000000E+00  0.00000000E+00  3.19444978E+08  3.19444978E+08
        76   57       2.02396336E-01  0.00000000E+00  6.44481327E+09  0.00000000E+00  6.44481327E+09
        76   90       6.56989827E-02  3.74398149E+09  0.00000000E+00  0.00000000E+00  3.74398149E+09
        76   91       1.77670389E-02  1.25791191E+09  0.00000000E+00  0.00000000E+00  1.25791191E+09
        76   34       3.18519331E-04  0.00000000E+00  0.00000000E+00  3.40316112E+07  3.40316112E+07
        76   35       4.07474816E-03  0.00000000E+00  0.00000000E+00  4.43567538E+08  4.43567538E+08
        76   92       1.83379819E-05  2.19245770E+06  0.00000000E+00  0.00000000E+00  2.19245770E+06
        94   49       4.53951300E-01  0.00000000E+00  0.00000000E+00  4.26246246E+09  4.26246246E+09
        94   70       8.64074565E-02  0.00000000E+00  1.19126136E+09  0.00000000E+00  1.19126136E+09
        94   82       8.64074565E-02  1.19126136E+09  0.00000000E+00  0.00000000E+00  1.19126136E+09
        94   71       9.05162655E-02  0.00000000E+00  2.82621866E+09  0.00000000E+00  2.82621866E+09
        94   83       9.05162655E-02  2.82621866E+09  0.00000000E+00  0.00000000E+00  2.82621866E+09
        94   84       5.51879076E-03  2.13277113E+08  0.00000000E+00  0.00000000E+00  2.13277113E+08
        94   72       5.51879076E-03  0.00000000E+00  2.13277113E+08  0.00000000E+00  2.13277113E+08
        94   86       2.62470682E-02  1.17784745E+09  0.00000000E+00  0.00000000E+00  1.17784745E+09
        94   74       2.62470682E-02  0.00000000E+00  1.17784745E+09  0.00000000E+00  1.17784745E+09
        94   51       2.76006903E-02  0.00000000E+00  0.00000000E+00  1.67806570E+09  1.67806570E+09
        94   52       3.28564299E-02  0.00000000E+00  0.00000000E+00  2.19153358E+09  2.19153358E+09
        94   53       6.04891772E-03  0.00000000E+00  0.00000000E+00  5.25971828E+08  5.25971828E+08
        36   49       8.25395651E-05  7.71310579E+05  0.00000000E+00  0.00000000E+00  7.71310579E+05
        36   82       1.61943461E-01  0.00000000E+00  0.00000000E+00  2.22381975E+09  2.22381975E+09
        36   83       1.68875897E-01  0.00000000E+00  0.00000000E+00  5.25901583E+09  5.25901583E+09
        36   84       6.57992882E-05  0.00000000E+00  0.00000000E+00  2.53685011E+06  2.53685011E+06
        36   86       9.48037362E-04  0.00000000E+00  0.00000000E+00  4.24503185E+07  4.24503185E+07
        36   13       1.46481372E-02  0.00000000E+00  8.65286996E+08  0.00000000E+00  8.65286996E+08
        36   50       1.46481372E-02  8.65286996E+08  0.00000000E+00  0.00000000E+00  8.65286996E+08
        36   51       6.26822844E-02  3.80377976E+09  0.00000000E+00  0.00000000E+00  3.80377976E+09
        36   14       2.53771416E-02  0.00000000E+00  1.57269454E+09  0.00000000E+00  1.57269454E+09
        36   52       2.43786982E-03  1.62314331E+08  0.00000000E+00  0.00000000E+00  1.62314331E+08
        36   15       7.98795098E-03  0.00000000E+00  6.29767611E+08  0.00000000E+00  6.29767611E+08
        36   53       1.20573206E-03  1.04677002E+08  0.00000000E+00  0.00000000E+00  1.04677002E+08
        24   49       8.25395651E-05  0.00000000E+00  7.71310579E+05  0.00000000E+00  7.71310579E+05
        24   70       1.61943461E-01  0.00000000E+00  0.00000000E+00  2.22381975E+09  2.22381975E+09
        24   71       1.68875897E-01  0.00000000E+00  0.00000000E+00  5.25901583E+09  5.25901583E+09
        24   72       6.57992882E-05  0.00000000E+00  0.00000000E+00  2.53685011E+06  2.53685011E+06
        24   74       9.48037362E-04  0.00000000E+00  0.00000000E+00  4.24503185E+07  4.24503185E+07
        24   13       1.46481372E-02  8.65286996E+08  0.00000000E+00  0.00000000E+00  8.65286996E+08
        24   50       1.46481372E-02  0.00000000E+00  8.65286996E+08  0.00000000E+00  8.65286996E+08
        24   51       6.26822844E-02  0.00000000E+00  3.80377976E+09  0.00000000E+00  3.80377976E+09
        24   14       2.53771416E-02  1.57269454E+09  0.00000000E+00  0.00000000E+00  1.57269454E+09
        24   52       2.43786982E-03  0.00000000E+00  1.62314331E+08  0.00000000E+00  1.62314331E+08
        24   15       7.98795098E-03  6.29767611E+08  0.00000000E+00  0.00000000E+00  6.29767611E+08
        24   53       1.20573206E-03  0.00000000E+00  1.04677002E+08  0.00000000E+00  1.04677002E+08
        89   44       4.56333650E-01  0.00000000E+00  0.00000000E+00  3.93831551E+09  3.93831551E+09
        89   65       2.93816797E-02  0.00000000E+00  3.50215601E+08  0.00000000E+00  3.50215601E+08
        89   77       2.93816797E-02  3.50215601E+08  0.00000000E+00  0.00000000E+00  3.50215601E+08
        89   78       6.18332707E-02  2.23852432E+09  0.00000000E+00  0.00000000E+00  2.23852432E+09
        89   66       6.18332707E-02  0.00000000E+00  2.23852432E+09  0.00000000E+00  2.23852432E+09
        89   67       1.43249499E-01  0.00000000E+00  5.86347568E+09  0.00000000E+00  5.86347568E+09
        89   79       1.43249499E-01  5.86347568E+09  0.00000000E+00  0.00000000E+00  5.86347568E+09
        89   68       1.39063656E-02  0.00000000E+00  5.81548701E+08  0.00000000E+00  5.81548701E+08
        89   80       1.39063656E-02  5.81548701E+08  0.00000000E+00  0.00000000E+00  5.81548701E+08
        89   45       4.85176035E-02  0.00000000E+00  0.00000000E+00  2.86241263E+09  2.86241263E+09
        89   47       6.30355574E-03  0.00000000E+00  0.00000000E+00  5.89340838E+08  5.89340838E+08
        55    4       4.56333650E-01  0.00000000E+00  0.00000000E+00  3.93831551E+09  3.93831551E+09
        55   65       2.93816797E-02  3.50215601E+08  0.00000000E+00  0.00000000E+00  3.50215601E+08
        55   77       2.93816797E-02  0.00000000E+00  3.50215601E+08  0.00000000E+00  3.50215601E+08
        55   78       6.18332707E-02  0.00000000E+00  2.23852432E+09  0.00000000E+00  2.23852432E+09
        55   66       6.18332707E-02  2.23852432E+09  0.00000000E+00  0.00000000E+00  2.23852432E+09
        55   67       1.43249499E-01  5.86347568E+09  0.00000000E+00  0.00000000E+00  5.86347568E+09
        55   79       1.43249499E-01  0.00000000E+00  5.86347568E+09  0.00000000E+00  5.86347568E+09
        55   68       1.39063656E-02  5.81548701E+08  0.00000000E+00  0.00000000E+00  5.81548701E+08
        55   80       1.39063656E-02  0.00000000E+00  5.81548701E+08  0.00000000E+00  5.81548701E+08
        55    7       4.85176035E-02  0.00000000E+00  0.00000000E+00  2.86241263E+09  2.86241263E+09
        55   10       6.30355574E-03  0.00000000E+00  0.00000000E+00  5.89340838E+08  5.89340838E+08
        55   12       6.86480986E-01  0.00000000E+00  0.00000000E+00  9.52828055E+10  9.52828055E+10
        31    3       7.31116865E-02  0.00000000E+00  3.67420443E+08  0.00000000E+00  3.67420443E+08
        31   44       1.79480701E-03  1.33365573E+07  0.00000000E+00  0.00000000E+00  1.33365573E+07
        31    4       1.79480701E-03  0.00000000E+00  1.33365573E+07  0.00000000E+00  1.33365573E+07
        31    5       1.23597789E-02  0.00000000E+00  1.02778128E+08  0.00000000E+00  1.02778128E+08
        31   77       1.23324516E-02  0.00000000E+00  0.00000000E+00  1.29512379E+08  1.29512379E+08
        31    6       2.74700750E-01  0.00000000E+00  7.00127649E+09  0.00000000E+00  7.00127649E+09
        31   78       9.90859048E-02  0.00000000E+00  0.00000000E+00  3.33903770E+09  3.33903770E+09
        31   79       1.46503620E-01  0.00000000E+00  0.00000000E+00  5.60615860E+09  5.60615860E+09
        31    7       2.45556096E-02  0.00000000E+00  1.36991389E+09  0.00000000E+00  1.36991389E+09
        31   45       2.45556096E-02  1.36991389E+09  0.00000000E+00  0.00000000E+00  1.36991389E+09
        31    8       4.55700419E-02  0.00000000E+00  2.68039454E+09  0.00000000E+00  2.68039454E+09
        31   46       5.49271833E-02  3.45289898E+09  0.00000000E+00  0.00000000E+00  3.45289898E+09
        31    9       3.63568477E-04  0.00000000E+00  3.09411236E+07  0.00000000E+00  3.09411236E+07
        31   10       2.22076800E-03  0.00000000E+00  1.98629728E+08  0.00000000E+00  1.98629728E+08
        31   47       2.22076800E-03  1.98629728E+08  0.00000000E+00  0.00000000E+00  1.98629728E+08
        31   11       6.22979016E-03  0.00000000E+00  5.85857396E+08  0.00000000E+00  5.85857396E+08
        31   12       3.21916858E-05  0.00000000E+00  4.30894152E+06  0.00000000E+00  4.30894152E+06
        19    3       7.31116865E-02  3.67420443E+08  0.00000000E+00  0.00000000E+00  3.67420443E+08
        19   44       1.79480701E-03  0.00000000E+00  1.33365573E+07  0.00000000E+00  1.33365573E+07
        19    4       1.79480701E-03  1.33365573E+07  0.00000000E+00  0.00000000E+00  1.33365573E+07
        19    5       1.23597789E-02  1.02778128E+08  0.00000000E+00  0.00000000E+00  1.02778128E+08
        19   65       1.23324516E-02  0.00000000E+00  0.00000000E+00  1.29512379E+08  1.29512379E+08
        19    6       2.74700750E-01  7.00127649E+09  0.00000000E+00  0.00000000E+00  7.00127649E+09
        19   66       9.90859048E-02  0.00000000E+00  0.00000000E+00  3.33903770E+09  3.33903770E+09
        19   67       1.46503620E-01  0.00000000E+00  0.00000000E+00  5.60615860E+09  5.60615860E+09
        19    7       2.45556096E-02  1.36991389E+09  0.00000000E+00  0.00000000E+00  1.36991389E+09
        19   45       2.45556096E-02  0.00000000E+00  1.36991389E+09  0.00000000E+00  1.36991389E+09
        19    8       4.55700419E-02  2.68039454E+09  0.00000000E+00  0.00000000E+00  2.68039454E+09
        19   46       5.49271833E-02  0.00000000E+00  3.45289898E+09  0.00000000E+00  3.45289898E+09
        19    9       3.63568477E-04  3.09411236E+07  0.00000000E+00  0.00000000E+00  3.09411236E+07
        19   10       2.22076800E-03  1.98629728E+08  0.00000000E+00  0.00000000E+00  1.98629728E+08
        19   47       2.22076800E-03  0.00000000E+00  1.98629728E+08  0.00000000E+00  1.98629728E+08
        19   11       6.22979016E-03  5.85857396E+08  0.00000000E+00  0.00000000E+00  5.85857396E+08
        19   12       3.21916858E-05  4.30894152E+06  0.00000000E+00  0.00000000E+00  4.30894152E+06
        56    3       2.00979608E-05  0.00000000E+00  0.00000000E+00  9.29839220E+04  9.29839220E+04
        56    5       4.52319651E-01  0.00000000E+00  0.00000000E+00  3.52809557E+09  3.52809557E+09
        56   65       1.29705853E-02  1.28686226E+08  0.00000000E+00  0.00000000E+00  1.28686226E+08
        56   77       1.29705853E-02  0.00000000E+00  1.28686226E+08  0.00000000E+00  1.28686226E+08
        56    6       7.51011127E-03  0.00000000E+00  0.00000000E+00  1.84584974E+08  1.84584974E+08
        56   78       8.38866546E-02  0.00000000E+00  2.73908925E+09  0.00000000E+00  2.73908925E+09
        56   66       8.38866545E-02  2.73908925E+09  0.00000000E+00  0.00000000E+00  2.73908925E+09
        56   67       8.76827545E-02  3.25750267E+09  0.00000000E+00  0.00000000E+00  3.25750267E+09
        56   79       8.76827545E-02  0.00000000E+00  3.25750267E+09  0.00000000E+00  3.25750267E+09
        56    8       4.58974959E-02  0.00000000E+00  0.00000000E+00  2.63609737E+09  2.63609737E+09
        56    9       2.83081769E-02  0.00000000E+00  0.00000000E+00  2.36193838E+09  2.36193838E+09
        56   11       6.45572790E-02  0.00000000E+00  0.00000000E+00  5.95786990E+09  5.95786990E+09
         3   20       3.31229744E-03  1.41263480E+06  0.00000000E+00  0.00000000E+00  1.41263480E+06
         3   32       3.31229744E-03  0.00000000E+00  1.41263480E+06  0.00000000E+00  1.41263480E+06
         3   33       4.40790595E-05  0.00000000E+00  5.27669242E+04  0.00000000E+00  5.27669242E+04
         3   21       4.40790595E-05  5.27669242E+04  0.00000000E+00  0.00000000E+00  5.27669242E+04
         3   57       1.99257389E-01  0.00000000E+00  0.00000000E+00  1.14960569E+09  1.14960569E+09
         3   22       1.00124354E-04  5.04093684E+06  0.00000000E+00  0.00000000E+00  5.04093684E+06
         3   34       1.00124354E-04  0.00000000E+00  5.04093684E+06  0.00000000E+00  5.04093684E+06
         3   35       6.53551056E-05  0.00000000E+00  3.38098785E+06  0.00000000E+00  3.38098785E+06
         3   23       6.53551056E-05  3.38098785E+06  0.00000000E+00  0.00000000E+00  3.38098785E+06
        25   49       1.48382432E-04  0.00000000E+00  3.12356159E+01  0.00000000E+00  3.12356159E+01
        25   70       1.48637819E-01  0.00000000E+00  0.00000000E+00  6.53905860E+07  6.53905860E+07
        25   71       9.04581535E-03  0.00000000E+00  0.00000000E+00  5.82695838E+07  5.82695838E+07
        25   72       3.07096372E-04  0.00000000E+00  0.00000000E+00  3.07977113E+06  3.07977113E+06
        25   74       5.12721202E-04  0.00000000E+00  0.00000000E+00  6.82757811E+06  6.82757811E+06
        25   13       1.57370338E-04  3.39307173E+06  0.00000000E+00  0.00000000E+00  3.39307173E+06
        25   50       1.57370338E-04  0.00000000E+00  3.39307173E+06  0.00000000E+00  3.39307173E+06
        25   51       1.12143468E-05  0.00000000E+00  2.52763108E+05  0.00000000E+00  2.52763108E+05
        25   14       4.45513763E-03  1.03928212E+08  0.00000000E+00  0.00000000E+00  1.03928212E+08
        25   52       7.88146295E-04  0.00000000E+00  2.06387834E+07  0.00000000E+00  2.06387834E+07
        25   15       1.48107566E-01  5.04570177E+09  0.00000000E+00  0.00000000E+00  5.04570177E+09
        25   53       1.00455451E-02  0.00000000E+00  3.95563533E+08  0.00000000E+00  3.95563533E+08
        37   49       1.48382432E-04  3.12356159E+01  0.00000000E+00  0.00000000E+00  3.12356159E+01
        37   82       1.48637819E-01  0.00000000E+00  0.00000000E+00  6.53905860E+07  6.53905860E+07
        37   83       9.04581535E-03  0.00000000E+00  0.00000000E+00  5.82695838E+07  5.82695838E+07
        37   84       3.07096372E-04  0.00000000E+00  0.00000000E+00  3.07977113E+06  3.07977113E+06
        37   86       5.12721202E-04  0.00000000E+00  0.00000000E+00  6.82757811E+06  6.82757811E+06
        37   13       1.57370338E-04  0.00000000E+00  3.39307173E+06  0.00000000E+00  3.39307173E+06
        37   50       1.57370338E-04  3.39307173E+06  0.00000000E+00  0.00000000E+00  3.39307173E+06
        37   51       1.12143468E-05  2.52763108E+05  0.00000000E+00  0.00000000E+00  2.52763108E+05
        37   14       4.45513763E-03  0.00000000E+00  1.03928212E+08  0.00000000E+00  1.03928212E+08
        37   52       7.88146295E-04  2.06387834E+07  0.00000000E+00  0.00000000E+00  2.06387834E+07
        37   15       1.48107566E-01  0.00000000E+00  5.04570177E+09  0.00000000E+00  5.04570177E+09
        37   53       1.00455451E-02  3.95563533E+08  0.00000000E+00  0.00000000E+00  3.95563533E+08
        49   26       1.20086169E-05  0.00000000E+00  2.86898018E+03  0.00000000E+00  2.86898018E+03
        49   38       1.20086169E-05  2.86898018E+03  0.00000000E+00  0.00000000E+00  2.86898018E+03
        49   96       2.59992854E-05  0.00000000E+00  0.00000000E+00  3.75523476E+05  3.75523476E+05
        49   97       6.59694223E-04  0.00000000E+00  0.00000000E+00  1.53995308E+07  1.53995308E+07
        49   39       1.42860776E-01  5.04983168E+09  0.00000000E+00  0.00000000E+00  5.04983168E+09
        49   27       1.42860776E-01  0.00000000E+00  5.04983168E+09  0.00000000E+00  5.04983168E+09
        49   40       1.64946001E-02  7.12838895E+08  0.00000000E+00  0.00000000E+00  7.12838895E+08
        49   28       1.64946001E-02  0.00000000E+00  7.12838895E+08  0.00000000E+00  7.12838895E+08
        60   70       3.21090607E-03  1.05552882E+06  0.00000000E+00  0.00000000E+00  1.05552882E+06
        60   82       3.21090607E-03  0.00000000E+00  1.05552882E+06  0.00000000E+00  1.05552882E+06
        60   71       4.67161284E-05  2.79981078E+05  0.00000000E+00  0.00000000E+00  2.79981078E+05
        60   83       4.67161284E-05  0.00000000E+00  2.79981078E+05  0.00000000E+00  2.79981078E+05
        60   15       1.83897249E-01  0.00000000E+00  0.00000000E+00  6.07342679E+09  6.07342679E+09
        44   20       1.45641391E-03  0.00000000E+00  4.15435366E+04  0.00000000E+00  4.15435366E+04
        44   32       1.45641391E-03  4.15435366E+04  0.00000000E+00  0.00000000E+00  4.15435366E+04
        44   33       9.01177177E-05  3.35279358E+04  0.00000000E+00  0.00000000E+00  3.35279358E+04
        44   21       9.01177177E-05  0.00000000E+00  3.35279358E+04  0.00000000E+00  3.35279358E+04
        44   91       7.34511070E-04  0.00000000E+00  0.00000000E+00  1.61507106E+07  1.61507106E+07
        44   22       7.38155252E-03  0.00000000E+00  3.22650348E+08  0.00000000E+00  3.22650348E+08
        44   34       7.38155252E-03  3.22650348E+08  0.00000000E+00  0.00000000E+00  3.22650348E+08
        44   35       9.33554653E-02  4.20120683E+09  0.00000000E+00  0.00000000E+00  4.20120683E+09
        44   23       9.33554653E-02  0.00000000E+00  4.20120683E+09  0.00000000E+00  4.20120683E+09
         4   20       1.45641391E-03  4.15435366E+04  0.00000000E+00  0.00000000E+00  4.15435366E+04
         4   32       1.45641391E-03  0.00000000E+00  4.15435366E+04  0.00000000E+00  4.15435366E+04
         4   33       9.01177177E-05  0.00000000E+00  3.35279358E+04  0.00000000E+00  3.35279358E+04
         4   21       9.01177177E-05  3.35279358E+04  0.00000000E+00  0.00000000E+00  3.35279358E+04
         4   22       7.38155252E-03  3.22650348E+08  0.00000000E+00  0.00000000E+00  3.22650348E+08
         4   34       7.38155252E-03  0.00000000E+00  3.22650348E+08  0.00000000E+00  3.22650348E+08
         4   35       9.33554653E-02  0.00000000E+00  4.20120683E+09  0.00000000E+00  4.20120683E+09
         4   23       9.33554653E-02  4.20120683E+09  0.00000000E+00  0.00000000E+00  4.20120683E+09
        26   70       1.34555004E-04  0.00000000E+00  0.00000000E+00  3.44377962E+03  3.44377962E+03
        26   71       1.27554958E-03  0.00000000E+00  0.00000000E+00  5.28098199E+06  5.28098199E+06
        26   72       4.21685178E-03  0.00000000E+00  0.00000000E+00  2.99156819E+07  2.99156819E+07
        26   13       8.65202314E-02  1.48299089E+09  0.00000000E+00  0.00000000E+00  1.48299089E+09
        26   50       8.65202314E-02  0.00000000E+00  1.48299089E+09  0.00000000E+00  1.48299089E+09
        26   51       3.71140723E-04  0.00000000E+00  6.68563401E+06  0.00000000E+00  6.68563401E+06
        26   14       9.62181960E-02  1.80114078E+09  0.00000000E+00  0.00000000E+00  1.80114078E+09
        26   52       2.65150875E-01  0.00000000E+00  5.64474762E+09  0.00000000E+00  5.64474762E+09
        26   15       3.51172759E-03  9.98943060E+07  0.00000000E+00  0.00000000E+00  9.98943060E+07
        26   53       1.11665302E-02  0.00000000E+00  3.72000373E+08  0.00000000E+00  3.72000373E+08
        38   82       1.34555004E-04  0.00000000E+00  0.00000000E+00  3.44377962E+03  3.44377962E+03
        38   83       1.27554958E-03  0.00000000E+00  0.00000000E+00  5.28098199E+06  5.28098199E+06
        38   84       4.21685178E-03  0.00000000E+00  0.00000000E+00  2.99156819E+07  2.99156819E+07
[...]
        82   39            65.443290  1.53468555E-01  9.27620304E-02
        82   63            14.883993  1.81337549E-01  1.57844052E-01
        82   40            42.990626  4.12597841E-03  2.88548874E-03
        82   98          2906.421125  3.80855927E-03  1.26680831E-04
        65   21            99.280474  5.71370402E-04  7.94092699E-02
        65   57         20361.276039  1.91755735E-02  9.37164110E-05
        65   90            54.226477  1.17174389E-04  2.55987260E-04
        65   91           237.702047  8.65227224E-05  2.56210240E-05
        65   22           195.976330  7.40470473E-03  2.50178950E-03
        65   23           140.192297  3.68388185E-02  1.53372189E-02
        65   92           597.618419  2.51084453E-02  3.59916604E-03
        77   33            99.280474  5.71370402E-04  7.94092699E-02
        77   57         20361.276040  1.91755735E-02  9.37164110E-05
        77   90            54.226477  1.17174389E-04  2.55987260E-04
        77   91           237.702047  8.65227224E-05  2.56210240E-05
        77   34           195.976330  7.40470473E-03  2.50178950E-03
        77   35           140.192297  3.68388185E-02  1.53372189E-02
        77   92           597.618419  2.51084453E-02  3.59916604E-03
        33    6          1109.795547  4.97303512E-04  4.11064096E-05
        33   78           642.762927  2.03674104E-03  2.74211456E-04
        33   79            54.851870  7.69029191E-03  1.70334672E-02
        33    8            61.231774  9.79854333E-02  6.07730293E-02
        33   46            40.769118  2.66767126E-01  1.89506853E-01
        33    9            92.239025  1.82197334E-05  2.34760879E-04
        33   10            78.464707  1.62653253E-04  7.55286928E-04
        33   47            78.464707  1.62653253E-04  7.55286928E-04
        33   11           213.795081  9.07908516E-03  2.89331660E-03
        21    6          1109.795547  4.97303512E-04  4.11064096E-05
        21   66           642.762927  2.03674104E-03  2.74211456E-04
        21   67            54.851870  7.69029191E-03  1.70334672E-02
        21    8            61.231774  9.79854333E-02  6.07730293E-02
        21   46            40.769118  2.66767126E-01  1.89506853E-01
        21    9            92.239025  1.82197334E-05  2.34760879E-04
        21   10            78.464707  1.62653253E-04  7.55286928E-04
        21   47            78.464707  1.62653253E-04  7.55286928E-04
        21   11           213.795081  9.07908516E-03  2.89331660E-03
        57    6            10.064230  1.78079961E-01  1.98007935E-01
        57   78            99.222464  1.21336471E-04  1.56052533E-02
        57   66            99.222464  1.21336471E-04  1.56052533E-02
        57   67            99.000668  1.36369287E-04  1.36460384E-02
        57   79            99.000668  1.36369287E-04  1.36460384E-02
        57    8           272.034328  1.36305788E-02  3.66379599E-03
        57    9            36.692276  1.72593245E-01  1.26264080E-01
        57   11            39.501218  1.22676695E-01  8.79395148E-02
        71   61            66.232538  4.70011145E-05  1.39190544E-04
        71   95            66.232538  4.70011145E-05  1.39190544E-04
        71   62            14.396125  1.19491372E-03  1.04454039E-03
        71   97            96.320260  3.70636877E-05  1.00723666E-03
        71   27            29.171986  1.51214476E-01  1.17064450E-01
        71   63            22.558364  1.59922634E-01  1.30486920E-01
        71   28            63.953029  1.46087212E-02  8.91030880E-03
        71   98           224.893682  1.77708401E-03  5.46974013E-04
        83   61            66.232538  4.70011145E-05  1.39190544E-04
        83   95            66.232538  4.70011145E-05  1.39190544E-04
        83   62            14.396125  1.19491372E-03  1.04454039E-03
        83   97            96.320260  3.70636877E-05  1.00723666E-03
        83   39            29.171986  1.51214476E-01  1.17064450E-01
        83   63            22.558364  1.59922634E-01  1.30486920E-01
        83   40            63.953029  1.46087212E-02  8.91030880E-03
        83   98           224.893682  1.77708401E-03  5.46974013E-04
        87   42            11.440927  2.59187703E-01  2.32578560E-01
        75   30            11.440927  2.59187703E-01  2.32578560E-01
         6   22            86.138387  4.58312319E-04  3.30634181E-03
         6   34            86.138387  4.58312319E-04  3.30634181E-03
         6   35            91.837967  3.92503587E-04  4.80889485E-03
         6   23            91.837967  3.92503587E-04  4.80889485E-03
        99   54            76.289662  5.43750389E-02  2.29330511E-01
        84   61            75.236207  1.57436296E-03  8.98423329E-04
        84   95            75.236206  1.57436296E-03  8.98423329E-04
        84   96            29.102326  1.79471190E-03  2.53141155E-03
        84   62           126.358782  6.67747955E-04  2.94995383E-04
        84   97           420.843358  2.85122964E-03  5.47425555E-04
        84   39            18.912104  1.37856292E-02  1.70008470E-02
        84   63            16.524670  2.66596645E-05  2.28789873E-05
        84   40            16.720929  2.29553998E-01  1.96669098E-01
        84   98            42.060273  6.41026157E-02  4.51235340E-02
        72   61            75.236206  1.57436296E-03  8.98423329E-04
        72   95            75.236207  1.57436296E-03  8.98423329E-04
        72   96            29.102326  1.79471190E-03  2.53141155E-03
        72   62           126.358782  6.67747955E-04  2.94995383E-04
        72   97           420.843358  2.85122964E-03  5.47425555E-04
        72   27            18.912104  1.37856292E-02  1.70008470E-02
        72   63            16.524670  2.66596645E-05  2.28789873E-05
        72   28            16.720929  2.29553998E-01  1.96669098E-01
        72   98            42.060273  6.41026157E-02  4.51235340E-02
        85   61            94.067477  9.91635069E-04  1.67152340E-02
        85   95            94.067477  9.91635069E-04  1.67152340E-02
        85   41            19.509632  2.52641025E-01  2.11398045E-01
        73   61            94.067477  9.91635069E-04  1.67152340E-02
        73   95            94.067477  9.91635069E-04  1.67152340E-02
        73   29            19.509632  2.52641025E-01  2.11398045E-01
        78   34            38.060087  2.49317854E-01  1.80586482E-01
        78   35      --------------- below threshold  1.13240844E-03
        78   92            63.646992  3.34268377E-02  2.04261852E-02
        66   22            38.060087  2.49317854E-01  1.80586482E-01
        66   23      --------------- below threshold  1.13240844E-03
        66   92            63.646992  3.34268377E-02  2.04261852E-02
        86   61      --------------- below threshold  1.42247013E-03
        86   95      --------------- below threshold  1.42247013E-03
        86   96            96.127638  3.67200877E-04  9.48260675E-03
        86   62            94.297793  8.16468999E-05  1.43184738E-03
        86   97            83.061223  1.76912003E-02  9.66408944E-03
        86   39            37.945230  4.24843847E-03  6.84627223E-03
        86   63            50.388842  2.28771552E-04  1.52120030E-04
        86   40            42.547600  5.80652871E-03  4.07339632E-03
        74   61      --------------- below threshold  1.42247013E-03
        74   95      --------------- below threshold  1.42247013E-03
        74   96            96.127638  3.67200877E-04  9.48260675E-03
        74   62            94.297793  8.16468998E-05  1.43184738E-03
        74   97            83.061223  1.76912003E-02  9.66408944E-03
        74   27            37.945230  4.24843847E-03  6.84627223E-03
        74   63            50.388842  2.28771552E-04  1.52120030E-04
        74   28            42.547600  5.80652871E-03  4.07339632E-03
        61   13            57.445197  6.75388246E-02  1.58710229E-01
        95   50            57.445197  6.75388246E-02  1.58710229E-01
        54   42            62.647913  1.63171824E-04  4.36847944E-04
        54   30            62.647913  1.63171824E-04  4.36847944E-04
        96   51            67.510768  1.85223383E-02  5.70106982E-02
        96   53           167.648747  1.28891425E-04  4.81569319E-05
        62   14            52.366810  6.74129649E-02  1.41525195E-01
        62   15            72.597971  1.44334977E-02  5.26730988E-02
        67   90            85.831912  4.10866933E-04  2.89994623E-03
        67   91           483.165286  4.44302318E-03  7.61880600E-04
        67   22            68.168949  1.28722521E-03  4.04392935E-03
        67   23            30.476019  1.79383868E-01  1.37484168E-01
        67   92            10.985934  1.61582320E-02  1.45588107E-02
        79   90            85.831912  4.10866933E-04  2.89994623E-03
        79   91           483.165286  4.44302318E-03  7.61880600E-04
        79   34            68.168949  1.28722521E-03  4.04392935E-03
        79   35            30.476019  1.79383868E-01  1.37484168E-01
        79   92            10.985934  1.61582320E-02  1.45588107E-02
        68   91          1583.646605  8.65356077E-03  5.13977265E-04
        80   91          1583.646605  8.65356077E-03  5.13977265E-04
        13   40      ---------------  1.47956811E-05 below threshold
        13   28      ---------------  1.47956811E-05 below threshold
        13   29      ---------------  9.25576745E-04 below threshold
        13   41      ---------------  9.25576745E-04 below threshold
        50   40      ---------------  1.47956811E-05 below threshold
        50   28      ---------------  1.47956811E-05 below threshold
        50   29      ---------------  9.25576745E-04 below threshold
        50   41      ---------------  9.25576745E-04 below threshold
        51   97            98.929793  5.99580869E-03  5.60247550E-01
        51   39      --------------- below threshold  4.57557249E-05
        51   27      --------------- below threshold  4.57557249E-05
        51   40      ---------------  1.03857500E-05 below threshold
        51   28      ---------------  1.03857500E-05 below threshold
        51   98           168.972584  9.77973458E-04  3.63595963E-04
        14   39            51.633649  2.84425621E-04  5.88065082E-04
        14   27            51.633649  2.84425621E-04  5.88065082E-04
        14   63            99.151769  8.57552625E-05  1.01098909E-02
        14   40            86.003711  8.68837312E-05  6.20762638E-04
        14   28            86.003711  8.68837312E-05  6.20762638E-04
        97   52            88.421217  3.56977517E-03  3.08303136E-02
        97   53            90.370023  2.04493794E-04  2.12351270E-03
        91   45            99.640194  4.29658392E-03  1.19413960E+00
        91   47            98.154574  9.72764130E-05  5.27121788E-03
        52   39            91.089186  9.70337154E-05  5.07792813E-05
        52   27            91.089186  9.70337154E-05  5.07792813E-05
        52   40           891.549246  2.95332573E-03  2.97849627E-04
        52   28           891.549246  2.95332573E-03  2.97849627E-04
        52   98            50.717550  1.41689291E-02  9.40098154E-03
         7   35            23.694369  1.67412150E-04  2.19396848E-04
         7   23            23.694369  1.67412150E-04  2.19396848E-04
        45   35            23.694369  1.67412150E-04  2.19396848E-04
        45   23            23.694369  1.67412150E-04  2.19396848E-04
         8   22           233.987157  3.31313758E-04  9.91995505E-05
         8   34           233.987157  3.31313758E-04  9.91995505E-05
         8   35            64.121075  4.00937605E-04  1.11747384E-03
         8   23            64.121075  4.00937605E-04  1.11747384E-03
        46   22           448.458730  1.58851284E-03  2.89632154E-04
        46   34           448.458730  1.58851284E-03  2.89632154E-04
        46   35            18.366111  1.59748743E-03  1.95689246E-03
        46   23            18.366111  1.59748743E-03  1.95689246E-03
        46   92           262.265375  8.53289475E-03  2.35542653E-03
        15   39          6897.618676  1.14712331E-03  1.63930526E-05
        15   27          6897.618678  1.14712331E-03  1.63930526E-05
        15   63            63.027126  1.15337627E-01  3.11952020E-01
        15   40            46.446896  3.43211932E-05  6.40881487E-05
        15   28            46.446896  3.43211932E-05  6.40881487E-05
        16   42            97.862461  6.43167429E-04  3.00891536E-02
        16   30            97.862461  6.43167429E-04  3.00891536E-02
        17   42            98.285208  4.48149233E-04  2.61343227E-02
        17   30            98.285208  4.48149233E-04  2.61343227E-02
        39   53            20.241212  2.41980189E-05  3.03390003E-05
        27   53            20.241212  2.41980189E-05  3.03390003E-05
        53   40            97.712396  7.95925392E-04  3.47929752E-02
        53   28            97.712396  7.95925392E-04  3.47929752E-02
        53   98            55.450586  1.28344157E-01  2.88093927E-01
         9   22            71.651465  7.52454242E-04  2.65429671E-03
         9   34            71.651465  7.52454242E-04  2.65429671E-03
         9   35            97.941936  8.08106533E-04  3.92653829E-02
         9   23            97.941936  8.08106533E-04  3.92653829E-02
        22   10            98.671214  5.52950368E-05  4.16132124E-03
        22   47            98.671214  5.52950368E-05  4.16132124E-03
        22   11      --------------- below threshold  4.61337829E-02
        34   10            98.671214  5.52950368E-05  4.16132124E-03
        34   47            98.671214  5.52950368E-05  4.16132124E-03
        34   11      --------------- below threshold  4.61337829E-02
        35   10            99.977865  1.07301643E-05  4.84765617E-02
        35   47            99.977865  1.07301643E-05  4.84765617E-02
        35   11            91.905232  1.43497299E-03  1.77271674E-02
        35   12            23.524891  1.23686738E-03  1.61734635E-03
        23   10            99.977865  1.07301643E-05  4.84765617E-02
        23   47            99.977865  1.07301643E-05  4.84765617E-02
        23   11            91.905232  1.43497299E-03  1.77271674E-02
        23   12            23.524891  1.23686738E-03  1.61734635E-03
     ---------------------------------------------------------------

 Number of problematic transitions =                   565

--

 Electric-dipole - electric-octupole not included
 Electric-dipole - magnetic-quadrupole not included

++ Second-order contribution to the transition strengths (spin-free states):
   -------------------------------------------------------------------------
     for osc. strength at least  1.00000000E-05

      From   To        Osc. strength
     -------------------------------
        48   51       1.20397936E-05
        43   45       1.96455281E-05
         1    7       1.96455281E-05
         2    8       1.86771821E-05
        88   92       1.78793626E-05
        64    3       1.19098671E-05
        76    3       1.19098671E-05
     -------------------------------
--


      ****************************************************************************************************
      *                                                                                                  *
      *                                    Special properties section                                    *
      *                                                                                                  *
      ****************************************************************************************************


++ I/O STATISTICS
 
  I. General I/O information
  - - - - - - - - - - - - - - - - - - - - - - - - - - - - - - - - - - - - - - - - - - -
  Unit  Name          Flsize      Write/Read            MBytes           Write/Read
                      (MBytes)       Calls              In/Out           Time, sec.
  - - - - - - - - - - - - - - - - - - - - - - - - - - - - - - - - - - - - - - - - - - -
   1  RUNFILE           0.99 .     266/  263270 .      2.5/   1904.5 .       0/       0
   2  ANNI              0.00 .       0/       0 .      0.0/      0.0 .       0/       0
   3  ONEINT            1.54 .       0/  126040 .      0.0/ 152831.4 .       0/      18
   4  JOBIPH            1.52 .       0/     651 .      0.0/      1.5 .       0/       0
   5  JOBIPH01          1.22 .       0/     219 .      0.0/      1.3 .       0/       0
   6  JOBIPH02          1.22 .       0/     219 .      0.0/      1.3 .       0/       0
   7  JOBIPH03          1.28 .       0/     315 .      0.0/      1.4 .       0/       0
   8  JOBIPH04          1.32 .       0/     363 .      0.0/      1.4 .       0/       0
   9  JOBIPH05          1.15 .       0/     123 .      0.0/      1.3 .       0/       0
  10  JOBIPH06          1.28 .       0/     315 .      0.0/      1.4 .       0/       0
  11  JOBIPH07          1.32 .       0/     363 .      0.0/      1.4 .       0/       0
  12  JOBIPH08          1.15 .       0/     123 .      0.0/      1.3 .       0/       0
  13  JOBIPH09          1.28 .       0/     315 .      0.0/      1.4 .       0/       0
  14  JOBIPH10          1.32 .       0/     363 .      0.0/      1.4 .       0/       0
  15  JOBIPH11          1.15 .       0/     123 .      0.0/      1.3 .       0/       0
  16  JOBIPH12          1.22 .       0/     219 .      0.0/      1.3 .       0/       0
  17  JOBIPH13          1.32 .       0/     363 .      0.0/      1.4 .       0/       0
  18  JOBIPH14          1.28 .       0/     315 .      0.0/      1.4 .       0/       0
  19  JOBIPH15          1.32 .       0/     363 .      0.0/      1.4 .       0/       0
  20  JOBIPH16          1.15 .       0/     123 .      0.0/      1.3 .       0/       0
  21  JOBIPH17          1.28 .       0/     315 .      0.0/      1.4 .       0/       0
  22  JOBIPH18          1.32 .       0/     363 .      0.0/      1.4 .       0/       0
  23  JOBIPH19          1.15 .       0/     123 .      0.0/      1.3 .       0/       0
  24  JOBIPH20          1.28 .       0/     315 .      0.0/      1.4 .       0/       0
  25  JOBIPH21          1.32 .       0/     363 .      0.0/      1.4 .       0/       0
  26  JOBIPH22          1.15 .       0/     123 .      0.0/      1.3 .       0/       0
  - - - - - - - - - - - - - - - - - - - - - - - - - - - - - - - - - - - - - - - - - - -
   *  TOTAL            31.50 .     266/  395787 .      2.5/ 154767.0 .       0/      19
  - - - - - - - - - - - - - - - - - - - - - - - - - - - - - - - - - - - - - - - - - - -
 
  II. I/O Access Patterns
  - - - - - - - - - - - - - - - - - - - -
  Unit  Name               % of random
                         Write/Read calls
  - - - - - - - - - - - - - - - - - - - -
   1  RUNFILE             28.6/  11.1
   2  ANNI                 0.0/   0.0
   3  ONEINT               0.0/  99.3
   4  JOBIPH               0.0/  51.9
   5  JOBIPH01             0.0/  55.7
   6  JOBIPH02             0.0/  55.7
   7  JOBIPH03             0.0/  54.0
   8  JOBIPH04             0.0/  53.4
   9  JOBIPH05             0.0/  60.2
  10  JOBIPH06             0.0/  54.0
  11  JOBIPH07             0.0/  53.4
  12  JOBIPH08             0.0/  60.2
  13  JOBIPH09             0.0/  54.0
  14  JOBIPH10             0.0/  53.4
  15  JOBIPH11             0.0/  60.2
  16  JOBIPH12             0.0/  55.7
  17  JOBIPH13             0.0/  53.4
  18  JOBIPH14             0.0/  54.0
  19  JOBIPH15             0.0/  53.4
  20  JOBIPH16             0.0/  60.2
  21  JOBIPH17             0.0/  54.0
  22  JOBIPH18             0.0/  53.4
  23  JOBIPH19             0.0/  60.2
  24  JOBIPH20             0.0/  54.0
  25  JOBIPH21             0.0/  53.4
  26  JOBIPH22             0.0/  60.2
  - - - - - - - - - - - - - - - - - - - -
--
--- Stop Module: rassi at Thu Apr 17 10:56:12 2025 /rc=_RC_ALL_IS_WELL_ ---
--- Module rassi spent 40 seconds ---

.##################.
.# Happy landing! #.
.##################.

    Timing: Wall=40.74 User=19.87 System=20.06
