   This run of MOLCAS is using the pymolcas driver

                             OPE
                             OPE          NMOL  CASOP  ENMOLC A   SO
                 OPE        NMOLC        AS  OP EN  MO LC     AS  OP
                OPENM       OL CA        SO  PE NM  OL CA     SOP EN
                OP EN      MO   LC       AS  OP ENMOL  CASO   PENMOL
                OP  EN     MO   LC       AS  OP EN     MO     LC ASO
               OP   E  NMOL  C  AS       OP  EN MO     LC     AS  OP
               OP  E   NMO   LC AS        OPEN  MO     LCASOP EN   M
               O  PEN   MO  LCA  SO
            OPE   NMO   L   CAS    OP
        OPENMOL  CASOP     ENMOL   CASOPE
     OPENMOLCA   SOPENMOLCASOPEN   MOLCASOPE
    OPENMOLCAS   OP           EN   MOL    CAS
    OPENMOLCAS       OP  ENM        O     LCA
    OPENMOLCAS    OPEN  MOLCASO     P  E  NMO
    OPENMOLCAS     OP               E  N  MOL
    OPENMOLCA   SO           PENM   O  L  CAS    OPEN    MO    LCAS
    OPENMOLCA   SOP           ENM   O  L  CAS   OP  EN  MOLC  AS   O
    OPENMOLCA   SOPE           NM      O  LCA   S      OP  EN MO
    OPENMOLC                AS         O  PEN   M      OL  CA  SOPE
    OPENMO        LCASOPE  NMOL        C  ASO   P      ENMOLC     AS
    OPE     NMO      LCA  SO     P     E   NM   OL  CA SO  PE N   MO
          OPENMOLCA            SOPE   NMO        LCAS  O    P  ENMO
     OPENMOLCASOPENMOLCASOPENMOLCASOPENMOLCA
        OPENMOLCASOPENMOLCASOPENMOLCASOPE
            OPENMOLCASOPENMOLCASOPENM
               OPENMOLCASOPENMOLCA        version: 25.02
                   OPENMOLCASO
                       OPE                tag: 92-gf4b470f0a

 OpenMolcas is free software; you can redistribute it and/or modify it
 under the terms of the GNU Lesser General Public License version 2.1.
 OpenMolcas is distributed in the hope that it will be useful, but it
 is provided "as is" and without any express or implied warranties.
 For more details see the full text of the license in the file
 LICENSE or in <http://www.gnu.org/licenses/>.

                 Copyright (C) The OpenMolcas Authors
           For the author list and the recommended citation,
                   consult the file CONTRIBUTORS.md

           *************************************************
           * pymolcas version py2.29                       *
           *   build 2ba4516c4d154a59cba941070ba63e2c      *
           *   (after the EMIL interpreter by V. Veryazov) *
           *************************************************

configuration info
------------------
Host name: iftia91.univ.gda.pl (Linux)
C Compiler ID: GNU
C flags: -std=gnu99
Fortran Compiler ID: GNU
Fortran flags: -cpp -fdefault-integer-8 -fmax-stack-var-size=1048576
Definitions: _MOLCAS_;_I8_;_LINUX_
Parallel: OFF (GA=OFF)


   --------------------------------------------------------------------
  |
  |           Project: O2
  |    Submitted from: /scratch/tecumseh/WorkSpace/O2.0.5625
  |      Scratch area: /scratch/tecumseh/WorkSpace/O2.0.5625
  |   Save outputs to: WORKDIR
  |            Molcas: /home/tecumseh/program/OpenMolcas/build
  |
  | Scratch area is NOT empty
  |
  |    MOLCAS_DRIVER = /home/tecumseh/program/OpenMolcas/build/pymolcas
  |    MOLCAS_NPROCS = 1
  |    MOLCAS_SOURCE = /home/tecumseh/program/OpenMolcas/OpenMolcas
  | MOLCAS_STRUCTURE = 0
  |
   --------------------------------------------------------------------

++ ---------   Input file   ---------

>>> COPY $dir/vectors/$Project.$R.1Ag-12S.JobIph $WorkDir/JOBIPH

>>> COPY $dir/vectors/$Project.$R.3Ag-3S.JobIph $WorkDir/JOBIPH01

>>> COPY $dir/vectors/$Project.$R.5Ag-3S.JobIph $WorkDir/JOBIPH02

>>> COPY $dir/vectors/$Project.$R.1B3u-5S.JobIph $WorkDir/JOBIPH03

>>> COPY $dir/vectors/$Project.$R.3B3u-6S.JobIph $WorkDir/JOBIPH04

>>> COPY $dir/vectors/$Project.$R.5B3u-1S.JobIph $WorkDir/JOBIPH05

>>> COPY $dir/vectors/$Project.$R.1B2u-5S.JobIph $WorkDir/JOBIPH06

>>> COPY $dir/vectors/$Project.$R.3B2u-6S.JobIph $WorkDir/JOBIPH07

>>> COPY $dir/vectors/$Project.$R.5B2u-1S.JobIph $WorkDir/JOBIPH08

>>> COPY $dir/vectors/$Project.$R.1B1g-5S.JobIph $WorkDir/JOBIPH09

>>> COPY $dir/vectors/$Project.$R.3B1g-6S.JobIph $WorkDir/JOBIPH10

>>> COPY $dir/vectors/$Project.$R.5B1g-1S.JobIph $WorkDir/JOBIPH11

>>> COPY $dir/vectors/$Project.$R.1B1u-3S.JobIph $WorkDir/JOBIPH12

>>> COPY $dir/vectors/$Project.$R.3B1u-6S.JobIph $WorkDir/JOBIPH13

>>> COPY $dir/vectors/$Project.$R.1B2g-5S.JobIph $WorkDir/JOBIPH14

>>> COPY $dir/vectors/$Project.$R.3B2g-6S.JobIph $WorkDir/JOBIPH15

>>> COPY $dir/vectors/$Project.$R.5B2g-1S.JobIph $WorkDir/JOBIPH16

>>> COPY $dir/vectors/$Project.$R.1B3g-5S.JobIph $WorkDir/JOBIPH17

>>> COPY $dir/vectors/$Project.$R.3B3g-6S.JobIph $WorkDir/JOBIPH18

>>> COPY $dir/vectors/$Project.$R.5B3g-1S.JobIph $WorkDir/JOBIPH19

>>> COPY $dir/vectors/$Project.$R.1Au-5S.JobIph $WorkDir/JOBIPH20

>>> COPY $dir/vectors/$Project.$R.3Au-6S.JobIph $WorkDir/JOBIPH21

>>> COPY $dir/vectors/$Project.$R.5Au-1S.JobIph $WorkDir/JOBIPH22

&RASSI

OMEGa
NROF=23 12 3 3 5 6 1 5 6 1 5 6 1 3 6 5 6 1 5 6 1 5 6 1
1 2 3 4 5 6 7 8 9 10 11 12
1 2 3
1 2 3
1 2 3 4 5
1 2 3 4 5 6
1
1 2 3 4 5
1 2 3 4 5 6
1
1 2 3 4 5
1 2 3 4 5 6
1
1 2 3
1 2 3 4 5 6
1 2 3 4 5
1 2 3 4 5 6
1
1 2 3 4 5
1 2 3 4 5 6
1
1 2 3 4 5
1 2 3 4 5 6
1
EJOB

-- ----------------------------------

>>> COPY /home/tecumseh/project/molecule/O2/OpenMolcas/vectors/O2.0.5625.1Ag-12S.JobIph /scratch/tecumseh/WorkSpace/O2.0.5625/JOBIPH

>>> COPY /home/tecumseh/project/molecule/O2/OpenMolcas/vectors/O2.0.5625.3Ag-3S.JobIph /scratch/tecumseh/WorkSpace/O2.0.5625/JOBIPH01

>>> COPY /home/tecumseh/project/molecule/O2/OpenMolcas/vectors/O2.0.5625.5Ag-3S.JobIph /scratch/tecumseh/WorkSpace/O2.0.5625/JOBIPH02

>>> COPY /home/tecumseh/project/molecule/O2/OpenMolcas/vectors/O2.0.5625.1B3u-5S.JobIph /scratch/tecumseh/WorkSpace/O2.0.5625/JOBIPH03

>>> COPY /home/tecumseh/project/molecule/O2/OpenMolcas/vectors/O2.0.5625.3B3u-6S.JobIph /scratch/tecumseh/WorkSpace/O2.0.5625/JOBIPH04

>>> COPY /home/tecumseh/project/molecule/O2/OpenMolcas/vectors/O2.0.5625.5B3u-1S.JobIph /scratch/tecumseh/WorkSpace/O2.0.5625/JOBIPH05

>>> COPY /home/tecumseh/project/molecule/O2/OpenMolcas/vectors/O2.0.5625.1B2u-5S.JobIph /scratch/tecumseh/WorkSpace/O2.0.5625/JOBIPH06

>>> COPY /home/tecumseh/project/molecule/O2/OpenMolcas/vectors/O2.0.5625.3B2u-6S.JobIph /scratch/tecumseh/WorkSpace/O2.0.5625/JOBIPH07

>>> COPY /home/tecumseh/project/molecule/O2/OpenMolcas/vectors/O2.0.5625.5B2u-1S.JobIph /scratch/tecumseh/WorkSpace/O2.0.5625/JOBIPH08

>>> COPY /home/tecumseh/project/molecule/O2/OpenMolcas/vectors/O2.0.5625.1B1g-5S.JobIph /scratch/tecumseh/WorkSpace/O2.0.5625/JOBIPH09

>>> COPY /home/tecumseh/project/molecule/O2/OpenMolcas/vectors/O2.0.5625.3B1g-6S.JobIph /scratch/tecumseh/WorkSpace/O2.0.5625/JOBIPH10

>>> COPY /home/tecumseh/project/molecule/O2/OpenMolcas/vectors/O2.0.5625.5B1g-1S.JobIph /scratch/tecumseh/WorkSpace/O2.0.5625/JOBIPH11

>>> COPY /home/tecumseh/project/molecule/O2/OpenMolcas/vectors/O2.0.5625.1B1u-3S.JobIph /scratch/tecumseh/WorkSpace/O2.0.5625/JOBIPH12

>>> COPY /home/tecumseh/project/molecule/O2/OpenMolcas/vectors/O2.0.5625.3B1u-6S.JobIph /scratch/tecumseh/WorkSpace/O2.0.5625/JOBIPH13

>>> COPY /home/tecumseh/project/molecule/O2/OpenMolcas/vectors/O2.0.5625.1B2g-5S.JobIph /scratch/tecumseh/WorkSpace/O2.0.5625/JOBIPH14

>>> COPY /home/tecumseh/project/molecule/O2/OpenMolcas/vectors/O2.0.5625.3B2g-6S.JobIph /scratch/tecumseh/WorkSpace/O2.0.5625/JOBIPH15

>>> COPY /home/tecumseh/project/molecule/O2/OpenMolcas/vectors/O2.0.5625.5B2g-1S.JobIph /scratch/tecumseh/WorkSpace/O2.0.5625/JOBIPH16

>>> COPY /home/tecumseh/project/molecule/O2/OpenMolcas/vectors/O2.0.5625.1B3g-5S.JobIph /scratch/tecumseh/WorkSpace/O2.0.5625/JOBIPH17

>>> COPY /home/tecumseh/project/molecule/O2/OpenMolcas/vectors/O2.0.5625.3B3g-6S.JobIph /scratch/tecumseh/WorkSpace/O2.0.5625/JOBIPH18

>>> COPY /home/tecumseh/project/molecule/O2/OpenMolcas/vectors/O2.0.5625.5B3g-1S.JobIph /scratch/tecumseh/WorkSpace/O2.0.5625/JOBIPH19

>>> COPY /home/tecumseh/project/molecule/O2/OpenMolcas/vectors/O2.0.5625.1Au-5S.JobIph /scratch/tecumseh/WorkSpace/O2.0.5625/JOBIPH20

>>> COPY /home/tecumseh/project/molecule/O2/OpenMolcas/vectors/O2.0.5625.3Au-6S.JobIph /scratch/tecumseh/WorkSpace/O2.0.5625/JOBIPH21

>>> COPY /home/tecumseh/project/molecule/O2/OpenMolcas/vectors/O2.0.5625.5Au-1S.JobIph /scratch/tecumseh/WorkSpace/O2.0.5625/JOBIPH22

--- Start Module: rassi at Thu Apr 17 10:51:02 2025 ---

()()()()()()()()()()()()()()()()()()()()()()()()()()()()()()()()()()()()()()()()()()()()()()()()()()

                                               &RASSI

                                   only a single process is used
                       available to each process: 2.0 GB of memory, 1 thread?
                                            pid: 297817
()()()()()()()()()()()()()()()()()()()()()()()()()()()()()()()()()()()()()()()()()()()()()()()()()()


      ********************************************************************************
      *                                                                              *
      *                             General data section                             *
      *                                                                              *
      ********************************************************************************

   Specific data for JOBIPH file JOBIPH
   -------------------------------------

   Header from SEWARD:
                            O2, D2h symmetry, aug-cc-pVTZ                      
        Integrals generated by Gateway/Seward, Wed Apr 16 15:36:05 2025        

   CASSCF title (first line only):
       O2, 1Ag 12S                                                             

  STATE IRREP:                1
  SPIN MULTIPLICITY:          1
  ACTIVE ELECTRONS:          12
  MAX RAS1 HOLES:             0
  MAX RAS3 ELECTRONS:         0
  NR OF CONFIG:              60

   Specific data for JOBIPH file JOBIPH01
   -------------------------------------

   Header from SEWARD:
                            O2, D2h symmetry, aug-cc-pVTZ                      
        Integrals generated by Gateway/Seward, Wed Apr 16 15:36:05 2025        

   CASSCF title (first line only):
       O2, 3Ag  3S                                                             

  STATE IRREP:                1
  SPIN MULTIPLICITY:          3
  ACTIVE ELECTRONS:          12
  MAX RAS1 HOLES:             0
  MAX RAS3 ELECTRONS:         0
  NR OF CONFIG:              42

   Specific data for JOBIPH file JOBIPH02
   -------------------------------------

   Header from SEWARD:
                            O2, D2h symmetry, aug-cc-pVTZ                      
        Integrals generated by Gateway/Seward, Wed Apr 16 15:36:05 2025        

   CASSCF title (first line only):
       O2, 5Ag  3S                                                             

  STATE IRREP:                1
  SPIN MULTIPLICITY:          5
  ACTIVE ELECTRONS:          12
  MAX RAS1 HOLES:             0
  MAX RAS3 ELECTRONS:         0
  NR OF CONFIG:              10

   Specific data for JOBIPH file JOBIPH03
   -------------------------------------

   Header from SEWARD:
                            O2, D2h symmetry, aug-cc-pVTZ                      
        Integrals generated by Gateway/Seward, Thu Apr 17 10:50:50 2025        

   CASSCF title (first line only):
       O2, 1B3u 5S                                                             

  STATE IRREP:                2
  SPIN MULTIPLICITY:          1
  ACTIVE ELECTRONS:          12
  MAX RAS1 HOLES:             0
  MAX RAS3 ELECTRONS:         0
  NR OF CONFIG:              40

   Specific data for JOBIPH file JOBIPH04
   -------------------------------------

   Header from SEWARD:
                            O2, D2h symmetry, aug-cc-pVTZ                      
        Integrals generated by Gateway/Seward, Wed Apr 16 15:36:05 2025        

   CASSCF title (first line only):
       O2, 3B3u 6S                                                             

  STATE IRREP:                2
  SPIN MULTIPLICITY:          3
  ACTIVE ELECTRONS:          12
  MAX RAS1 HOLES:             0
  MAX RAS3 ELECTRONS:         0
  NR OF CONFIG:              48

   Specific data for JOBIPH file JOBIPH05
   -------------------------------------

   Header from SEWARD:
                            O2, D2h symmetry, aug-cc-pVTZ                      
        Integrals generated by Gateway/Seward, Wed Apr 16 15:36:05 2025        

   CASSCF title (first line only):
       O2, 5B3u 1S                                                             

  STATE IRREP:                2
  SPIN MULTIPLICITY:          5
  ACTIVE ELECTRONS:          12
  MAX RAS1 HOLES:             0
  MAX RAS3 ELECTRONS:         0
  NR OF CONFIG:               8

   Specific data for JOBIPH file JOBIPH06
   -------------------------------------

   Header from SEWARD:
                            O2, D2h symmetry, aug-cc-pVTZ                      
        Integrals generated by Gateway/Seward, Thu Apr 17 10:50:50 2025        

   CASSCF title (first line only):
       O2, 1B2u 5S                                                             

  STATE IRREP:                3
  SPIN MULTIPLICITY:          1
  ACTIVE ELECTRONS:          12
  MAX RAS1 HOLES:             0
  MAX RAS3 ELECTRONS:         0
  NR OF CONFIG:              40

   Specific data for JOBIPH file JOBIPH07
   -------------------------------------

   Header from SEWARD:
                            O2, D2h symmetry, aug-cc-pVTZ                      
        Integrals generated by Gateway/Seward, Wed Apr 16 15:36:05 2025        

   CASSCF title (first line only):
       O2, 3B2u 6S                                                             

  STATE IRREP:                3
  SPIN MULTIPLICITY:          3
  ACTIVE ELECTRONS:          12
  MAX RAS1 HOLES:             0
  MAX RAS3 ELECTRONS:         0
  NR OF CONFIG:              48

   Specific data for JOBIPH file JOBIPH08
   -------------------------------------

   Header from SEWARD:
                            O2, D2h symmetry, aug-cc-pVTZ                      
        Integrals generated by Gateway/Seward, Wed Apr 16 15:36:05 2025        

   CASSCF title (first line only):
       O2, 5B2u 1S                                                             

  STATE IRREP:                3
  SPIN MULTIPLICITY:          5
  ACTIVE ELECTRONS:          12
  MAX RAS1 HOLES:             0
  MAX RAS3 ELECTRONS:         0
  NR OF CONFIG:               8

   Specific data for JOBIPH file JOBIPH09
   -------------------------------------

   Header from SEWARD:
                            O2, D2h symmetry, aug-cc-pVTZ                      
        Integrals generated by Gateway/Seward, Wed Apr 16 15:36:05 2025        

   CASSCF title (first line only):
       O2, 1B1g 5S                                                             

  STATE IRREP:                4
  SPIN MULTIPLICITY:          1
  ACTIVE ELECTRONS:          12
  MAX RAS1 HOLES:             0
  MAX RAS3 ELECTRONS:         0
  NR OF CONFIG:              36

   Specific data for JOBIPH file JOBIPH10
   -------------------------------------

   Header from SEWARD:
                            O2, D2h symmetry, aug-cc-pVTZ                      
        Integrals generated by Gateway/Seward, Wed Apr 16 15:36:05 2025        

   CASSCF title (first line only):
       O2, 3B1g 6S                                                             

  STATE IRREP:                4
  SPIN MULTIPLICITY:          3
  ACTIVE ELECTRONS:          12
  MAX RAS1 HOLES:             0
  MAX RAS3 ELECTRONS:         0
  NR OF CONFIG:              48

   Specific data for JOBIPH file JOBIPH11
   -------------------------------------

   Header from SEWARD:
                            O2, D2h symmetry, aug-cc-pVTZ                      
        Integrals generated by Gateway/Seward, Wed Apr 16 15:36:05 2025        

   CASSCF title (first line only):
       O2, 5B1g 1S                                                             

  STATE IRREP:                4
  SPIN MULTIPLICITY:          5
  ACTIVE ELECTRONS:          12
  MAX RAS1 HOLES:             0
  MAX RAS3 ELECTRONS:         0
  NR OF CONFIG:              12

   Specific data for JOBIPH file JOBIPH12
   -------------------------------------

   Header from SEWARD:
                            O2, D2h symmetry, aug-cc-pVTZ                      
        Integrals generated by Gateway/Seward, Thu Apr 17 10:50:50 2025        

   CASSCF title (first line only):
       O2, 1B1u 3S                                                             

  STATE IRREP:                5
  SPIN MULTIPLICITY:          1
  ACTIVE ELECTRONS:          12
  MAX RAS1 HOLES:             0
  MAX RAS3 ELECTRONS:         0
  NR OF CONFIG:              44

   Specific data for JOBIPH file JOBIPH13
   -------------------------------------

   Header from SEWARD:
                            O2, D2h symmetry, aug-cc-pVTZ                      
        Integrals generated by Gateway/Seward, Wed Apr 16 15:36:05 2025        

   CASSCF title (first line only):
       O2, 3B1u 6S                                                             

  STATE IRREP:                5
  SPIN MULTIPLICITY:          3
  ACTIVE ELECTRONS:          12
  MAX RAS1 HOLES:             0
  MAX RAS3 ELECTRONS:         0
  NR OF CONFIG:              48

   Specific data for JOBIPH file JOBIPH14
   -------------------------------------

   Header from SEWARD:
                            O2, D2h symmetry, aug-cc-pVTZ                      
        Integrals generated by Gateway/Seward, Wed Apr 16 15:36:05 2025        

   CASSCF title (first line only):
       O2, 1B2g 5S                                                             

  STATE IRREP:                6
  SPIN MULTIPLICITY:          1
  ACTIVE ELECTRONS:          12
  MAX RAS1 HOLES:             0
  MAX RAS3 ELECTRONS:         0
  NR OF CONFIG:              40

   Specific data for JOBIPH file JOBIPH15
   -------------------------------------

   Header from SEWARD:
                            O2, D2h symmetry, aug-cc-pVTZ                      
        Integrals generated by Gateway/Seward, Wed Apr 16 15:36:05 2025        

   CASSCF title (first line only):
       O2, 3B2g 6S                                                             

  STATE IRREP:                6
  SPIN MULTIPLICITY:          3
  ACTIVE ELECTRONS:          12
  MAX RAS1 HOLES:             0
  MAX RAS3 ELECTRONS:         0
  NR OF CONFIG:              48

   Specific data for JOBIPH file JOBIPH16
   -------------------------------------

   Header from SEWARD:
                            O2, D2h symmetry, aug-cc-pVTZ                      
        Integrals generated by Gateway/Seward, Wed Apr 16 15:36:05 2025        

   CASSCF title (first line only):
       O2, 5B2g 1S                                                             

  STATE IRREP:                6
  SPIN MULTIPLICITY:          5
  ACTIVE ELECTRONS:          12
  MAX RAS1 HOLES:             0
  MAX RAS3 ELECTRONS:         0
  NR OF CONFIG:               8

   Specific data for JOBIPH file JOBIPH17
   -------------------------------------

   Header from SEWARD:
                            O2, D2h symmetry, aug-cc-pVTZ                      
        Integrals generated by Gateway/Seward, Wed Apr 16 15:36:05 2025        

   CASSCF title (first line only):
       O2, 1B3g 5S                                                             

  STATE IRREP:                7
  SPIN MULTIPLICITY:          1
  ACTIVE ELECTRONS:          12
  MAX RAS1 HOLES:             0
  MAX RAS3 ELECTRONS:         0
  NR OF CONFIG:              40

   Specific data for JOBIPH file JOBIPH18
   -------------------------------------

   Header from SEWARD:
                            O2, D2h symmetry, aug-cc-pVTZ                      
        Integrals generated by Gateway/Seward, Wed Apr 16 15:36:05 2025        

   CASSCF title (first line only):
       O2, 3B3g 6S                                                             

  STATE IRREP:                7
  SPIN MULTIPLICITY:          3
  ACTIVE ELECTRONS:          12
  MAX RAS1 HOLES:             0
  MAX RAS3 ELECTRONS:         0
  NR OF CONFIG:              48

   Specific data for JOBIPH file JOBIPH19
   -------------------------------------

   Header from SEWARD:
                            O2, D2h symmetry, aug-cc-pVTZ                      
        Integrals generated by Gateway/Seward, Wed Apr 16 15:36:05 2025        

   CASSCF title (first line only):
       O2, 5B3g 1S                                                             

  STATE IRREP:                7
  SPIN MULTIPLICITY:          5
  ACTIVE ELECTRONS:          12
  MAX RAS1 HOLES:             0
  MAX RAS3 ELECTRONS:         0
  NR OF CONFIG:               8

   Specific data for JOBIPH file JOBIPH20
   -------------------------------------

   Header from SEWARD:
                            O2, D2h symmetry, aug-cc-pVTZ                      
        Integrals generated by Gateway/Seward, Thu Apr 17 10:50:50 2025        

   CASSCF title (first line only):
       O2, 1Au 5S                                                              

  STATE IRREP:                8
  SPIN MULTIPLICITY:          1
  ACTIVE ELECTRONS:          12
  MAX RAS1 HOLES:             0
  MAX RAS3 ELECTRONS:         0
  NR OF CONFIG:              36

   Specific data for JOBIPH file JOBIPH21
   -------------------------------------

   Header from SEWARD:
                            O2, D2h symmetry, aug-cc-pVTZ                      
        Integrals generated by Gateway/Seward, Wed Apr 16 15:36:05 2025        

   CASSCF title (first line only):
       O2, 3Au 6S                                                              

  STATE IRREP:                8
  SPIN MULTIPLICITY:          3
  ACTIVE ELECTRONS:          12
  MAX RAS1 HOLES:             0
  MAX RAS3 ELECTRONS:         0
  NR OF CONFIG:              48

   Specific data for JOBIPH file JOBIPH22
   -------------------------------------

   Header from SEWARD:
                            O2, D2h symmetry, aug-cc-pVTZ                      
        Integrals generated by Gateway/Seward, Wed Apr 16 15:36:05 2025        

   CASSCF title (first line only):
       O2, 5Au 1S                                                              

  STATE IRREP:                8
  SPIN MULTIPLICITY:          5
  ACTIVE ELECTRONS:          12
  MAX RAS1 HOLES:             0
  MAX RAS3 ELECTRONS:         0
  NR OF CONFIG:              12
 ###############################################################################
 ###############################################################################
 ###                                                                         ###
 ###                                                                         ###
 ###    WARNING: EJOB used when HEFF is available, possible                  ###
 ###    extra interaction between states is ignored!                         ###
 ###                                                                         ###
 ###                                                                         ###
 ###############################################################################
 ###############################################################################

   The following data are common to all the states:
   ------------------------------------------------
   (note: frozen counts as inactive, deleted as secondary)

      Nr of irreps: 8

                 Total     No./Irrep 
      Irrep                  1   2   3   4   5   6   7   8
                            ag b3u b2u b1g b1u b2g b3g  au

      INACTIVE       2       1   0   0   0   1   0   0   0
      ACTIVE         8       2   1   1   0   2   1   1   0
      SECONDARY     82      16  10  10   5  16  10  10   5
      BASIS         92      19  11  11   5  19  11  11   5

      RAS1           0       0   0   0   0   0   0   0   0
      RAS2           8       2   1   1   0   2   1   1   0
      RAS3           0       0   0   0   0   0   0   0   0

        MATRIX ELEMENTS WILL BE COMPUTED FOR THE FOLLOWING ONE-ELECTRON OPERATORS, UNLESS ZERO BY SYMMETRY.
   (Herm=Hermitian, Anti=Antihermitian, Sing=Singlet operator, Trip=Triplet operator)
     MLTPL  0   1 (HERMSING)     MLTPL  1   1 (HERMSING)     MLTPL  1   2 (HERMSING)
     MLTPL  1   3 (HERMSING)     MLTPL  2   1 (HERMSING)     MLTPL  2   2 (HERMSING)
     MLTPL  2   3 (HERMSING)     MLTPL  2   4 (HERMSING)     MLTPL  2   5 (HERMSING)
     MLTPL  2   6 (HERMSING)     VELOCITY   1 (ANTISING)     VELOCITY   2 (ANTISING)
     VELOCITY   3 (ANTISING)     ANGMOM     1 (ANTISING)     ANGMOM     2 (ANTISING)
     ANGMOM     3 (ANTISING)     MLTPV  2   1 (ANTISING)     MLTPV  2   2 (ANTISING)
     MLTPV  2   3 (ANTISING)     MLTPV  2   4 (ANTISING)     MLTPV  2   5 (ANTISING)
     MLTPV  2   6 (ANTISING)

       EIGENSTATES OF A SPIN-FREE HAMILTONIAN WILL BE COMPUTED BASED ON:

  a Hamiltonian matrix assumed to be diagonal with energies read from the wavefunction file(s).

  Nr of states:                   99

   State:        1   2   3   4   5   6   7   8   9  10  11  12  13  14  15  16  17  18  19  20
  JobIph:        1   1   1   1   1   1   1   1   1   1   1   1   2   2   2   3   3   3   4   4
 Root nr:        1   2   3   4   5   6   7   8   9  10  11  12   1   2   3   1   2   3   1   2

   State:       21  22  23  24  25  26  27  28  29  30  31  32  33  34  35  36  37  38  39  40
  JobIph:        4   4   4   5   5   5   5   5   5   6   7   7   7   7   7   8   8   8   8   8
 Root nr:        3   4   5   1   2   3   4   5   6   1   1   2   3   4   5   1   2   3   4   5

   State:       41  42  43  44  45  46  47  48  49  50  51  52  53  54  55  56  57  58  59  60
  JobIph:        8   9  10  10  10  10  10  11  11  11  11  11  11  12  13  13  13  14  14  14
 Root nr:        6   1   1   2   3   4   5   1   2   3   4   5   6   1   1   2   3   1   2   3

   State:       61  62  63  64  65  66  67  68  69  70  71  72  73  74  75  76  77  78  79  80
  JobIph:       14  14  14  15  15  15  15  15  16  16  16  16  16  16  17  18  18  18  18  18
 Root nr:        4   5   6   1   2   3   4   5   1   2   3   4   5   6   1   1   2   3   4   5

   State:       81  82  83  84  85  86  87  88  89  90  91  92  93  94  95  96  97  98  99
  JobIph:       19  19  19  19  19  19  20  21  21  21  21  21  22  22  22  22  22  22  23
 Root nr:        1   2   3   4   5   6   1   1   2   3   4   5   1   2   3   4   5   6   1

  HAMILTONIAN MATRIX FOR THE ORIGINAL STATES:

  Diagonal, with energies
   -149.70703058   -149.68484093   -148.95244307   -148.94152228   -148.90720428
   -148.45648616   -148.45272149   -148.37411341   -148.34353231   -148.30070722
   -148.24104923   -147.98649509   -148.51722628   -148.50356232   -148.45793925
   -148.61267128   -148.60736313   -147.94509557   -149.08362727   -149.03406490
   -148.80800201   -148.42474714   -148.36700479   -149.14450293   -149.09911432
   -148.96736465   -148.49650599   -148.45655640   -148.44233243   -148.56798014
   -149.08362727   -149.03406490   -148.80800201   -148.42474714   -148.36700479
   -149.14450293   -149.09911432   -148.96736465   -148.49650599   -148.45655640
   -148.44233243   -148.56798014   -149.70703058   -148.94152228   -148.45272149
   -148.38748263   -148.34353231   -149.74533192   -149.00229022   -148.56825181
   -148.51722628   -148.45942461   -148.45793925   -148.62110309   -149.20438457
   -149.15326581   -148.47859126   -149.45865253   -149.45307277   -148.79481245
   -148.78063859   -148.72262675   -148.16597552   -149.32238329   -148.79730811
   -148.73316266   -148.72423225   -148.63798211   -149.37139551   -148.85507082
   -148.80839751   -148.79370078   -148.78648250   -148.68547330   -148.93213563
   -149.32238329   -148.79730811   -148.73316266   -148.72423225   -148.63798211
   -149.37139551   -148.85507082   -148.80839751   -148.79370078   -148.78648250
   -148.68547330   -148.93213563   -149.46789300   -149.20438457   -148.69158371
   -148.47859126   -148.15510815   -149.45865253   -149.29279562   -148.78063859
   -148.75276256   -148.51312079   -148.22068715   -148.87883260

      OVERLAP MATRIX FOR THE ORIGINAL STATES:

  Diagonal, with elements
      1.00000000      1.00000000      1.00000000      1.00000000      1.00000000
      1.00000000      1.00000000      1.00000000      1.00000000      1.00000000
      1.00000000      1.00000000      1.00000000      1.00000000      1.00000000
      1.00000000      1.00000000      1.00000000      1.00000000      1.00000000
      1.00000000      1.00000000      1.00000000      1.00000000      1.00000000
      1.00000000      1.00000000      1.00000000      1.00000000      1.00000000
      1.00000000      1.00000000      1.00000000      1.00000000      1.00000000
      1.00000000      1.00000000      1.00000000      1.00000000      1.00000000
      1.00000000      1.00000000      1.00000000      1.00000000      1.00000000
      1.00000000      1.00000000      1.00000000      1.00000000      1.00000000
      1.00000000      1.00000000      1.00000000      1.00000000      1.00000000
      1.00000000      1.00000000      1.00000000      1.00000000      1.00000000
      1.00000000      1.00000000      1.00000000      1.00000000      1.00000000
      1.00000000      1.00000000      1.00000000      1.00000000      1.00000000
      1.00000000      1.00000000      1.00000000      1.00000000      1.00000000
      1.00000000      1.00000000      1.00000000      1.00000000      1.00000000
      1.00000000      1.00000000      1.00000000      1.00000000      1.00000000
      1.00000000      1.00000000      1.00000000      1.00000000      1.00000000
      1.00000000      1.00000000      1.00000000      1.00000000      1.00000000
      1.00000000      1.00000000      1.00000000      1.00000000

::    RASSI State    1     Total energy:    -149.70703057603552
::    RASSI State    2     Total energy:    -149.68484092947907
::    RASSI State    3     Total energy:    -148.95244306777593
::    RASSI State    4     Total energy:    -148.94152227903450
::    RASSI State    5     Total energy:    -148.90720427850101
::    RASSI State    6     Total energy:    -148.45648616035871
::    RASSI State    7     Total energy:    -148.45272148673098
::    RASSI State    8     Total energy:    -148.37411340694183
::    RASSI State    9     Total energy:    -148.34353230548669
::    RASSI State   10     Total energy:    -148.30070722384312
::    RASSI State   11     Total energy:    -148.24104923044320
::    RASSI State   12     Total energy:    -147.98649509418823
::    RASSI State   13     Total energy:    -148.51722628143241
::    RASSI State   14     Total energy:    -148.50356231721190
::    RASSI State   15     Total energy:    -148.45793925302388
::    RASSI State   16     Total energy:    -148.61267128295256
::    RASSI State   17     Total energy:    -148.60736312588881
::    RASSI State   18     Total energy:    -147.94509556606448
::    RASSI State   19     Total energy:    -149.08362726684180
::    RASSI State   20     Total energy:    -149.03406490065663
::    RASSI State   21     Total energy:    -148.80800201384417
::    RASSI State   22     Total energy:    -148.42474713895490
::    RASSI State   23     Total energy:    -148.36700479333990
::    RASSI State   24     Total energy:    -149.14450293163270
::    RASSI State   25     Total energy:    -149.09911432462769
::    RASSI State   26     Total energy:    -148.96736464974725
::    RASSI State   27     Total energy:    -148.49650598940798
::    RASSI State   28     Total energy:    -148.45655640452446
::    RASSI State   29     Total energy:    -148.44233242772734
::    RASSI State   30     Total energy:    -148.56798013776452
::    RASSI State   31     Total energy:    -149.08362726684197
::    RASSI State   32     Total energy:    -149.03406490065660
::    RASSI State   33     Total energy:    -148.80800201384429
::    RASSI State   34     Total energy:    -148.42474713895481
::    RASSI State   35     Total energy:    -148.36700479333985
::    RASSI State   36     Total energy:    -149.14450293163281
::    RASSI State   37     Total energy:    -149.09911432462761
::    RASSI State   38     Total energy:    -148.96736464974728
::    RASSI State   39     Total energy:    -148.49650598940815
::    RASSI State   40     Total energy:    -148.45655640452443
::    RASSI State   41     Total energy:    -148.44233242772731
::    RASSI State   42     Total energy:    -148.56798013776452
::    RASSI State   43     Total energy:    -149.70703057603561
::    RASSI State   44     Total energy:    -148.94152227903461
::    RASSI State   45     Total energy:    -148.45272148673098
::    RASSI State   46     Total energy:    -148.38748262835375
::    RASSI State   47     Total energy:    -148.34353230548678
::    RASSI State   48     Total energy:    -149.74533192163119
::    RASSI State   49     Total energy:    -149.00229022306479
::    RASSI State   50     Total energy:    -148.56825180613646
::    RASSI State   51     Total energy:    -148.51722628143241
::    RASSI State   52     Total energy:    -148.45942461321258
::    RASSI State   53     Total energy:    -148.45793925302388
::    RASSI State   54     Total energy:    -148.62110309222004
::    RASSI State   55     Total energy:    -149.20438457308413
::    RASSI State   56     Total energy:    -149.15326581073708
::    RASSI State   57     Total energy:    -148.47859126387348
::    RASSI State   58     Total energy:    -149.45865252642145
::    RASSI State   59     Total energy:    -149.45307276666421
::    RASSI State   60     Total energy:    -148.79481245465357
::    RASSI State   61     Total energy:    -148.78063859217608
::    RASSI State   62     Total energy:    -148.72262675158845
::    RASSI State   63     Total energy:    -148.16597551758124
::    RASSI State   64     Total energy:    -149.32238328982586
::    RASSI State   65     Total energy:    -148.79730811401100
::    RASSI State   66     Total energy:    -148.73316265885975
::    RASSI State   67     Total energy:    -148.72423225028848
::    RASSI State   68     Total energy:    -148.63798210515208
::    RASSI State   69     Total energy:    -149.37139551070945
::    RASSI State   70     Total energy:    -148.85507082276641
::    RASSI State   71     Total energy:    -148.80839751127772
::    RASSI State   72     Total energy:    -148.79370078165192
::    RASSI State   73     Total energy:    -148.78648249613727
::    RASSI State   74     Total energy:    -148.68547330162278
::    RASSI State   75     Total energy:    -148.93213562667810
::    RASSI State   76     Total energy:    -149.32238328982581
::    RASSI State   77     Total energy:    -148.79730811401100
::    RASSI State   78     Total energy:    -148.73316265885967
::    RASSI State   79     Total energy:    -148.72423225028851
::    RASSI State   80     Total energy:    -148.63798210515222
::    RASSI State   81     Total energy:    -149.37139551070948
::    RASSI State   82     Total energy:    -148.85507082276652
::    RASSI State   83     Total energy:    -148.80839751127778
::    RASSI State   84     Total energy:    -148.79370078165172
::    RASSI State   85     Total energy:    -148.78648249613724
::    RASSI State   86     Total energy:    -148.68547330162275
::    RASSI State   87     Total energy:    -148.93213562667816
::    RASSI State   88     Total energy:    -149.46789300403165
::    RASSI State   89     Total energy:    -149.20438457308410
::    RASSI State   90     Total energy:    -148.69158371175743
::    RASSI State   91     Total energy:    -148.47859126387340
::    RASSI State   92     Total energy:    -148.15510814500595
::    RASSI State   93     Total energy:    -149.45865252642147
::    RASSI State   94     Total energy:    -149.29279562028347
::    RASSI State   95     Total energy:    -148.78063859217596
::    RASSI State   96     Total energy:    -148.75276255957692
::    RASSI State   97     Total energy:    -148.51312078778241
::    RASSI State   98     Total energy:    -148.22068715163206
::    RASSI State   99     Total energy:    -148.87883259591931



      ****************************************************************************************************
      *                                                                                                  *
      *                                         Spin-free section                                        *
      *                                                                                                  *
      *                 Note: index according to input order, order according to energy.                 *
      *                                                                                                  *
      ****************************************************************************************************



  SPIN-FREE ENERGIES:
  (Shifted by EMIN (a.u.) =       -149.7453319216)

 SF State       Relative EMIN(au)   Rel lowest level(eV)    D:o, cm**(-1)      L_eff   Abs_M

    48             0.0000000000        0.0000000000              0.0000         1.4     0.0
    43             0.0383013456        1.0422327087           8406.1737         2.3     2.0
     1             0.0383013456        1.0422327087           8406.1737         2.3     2.0
     2             0.0604909922        1.6460437519          13276.2382         1.5     0.0
    88             0.2774389176        7.5494975465          60890.8042         1.2     0.0
    93             0.2866793952        7.8009437518          62918.8546         2.1     2.0
    58             0.2866793952        7.8009437518          62918.8546         2.1     2.0
    59             0.2922591550        7.9527767497          64143.4703         1.1     0.0
    81             0.3739364109       10.1753281090          82069.5559         1.3     1.0
    69             0.3739364109       10.1753281090          82069.5559         1.3     1.0
    64             0.4229486318       11.5090185823          92826.4951         2.4     1.0
    76             0.4229486318       11.5090185823          92826.4951         2.4     1.0
    94             0.4525363013       12.3141400863          99320.2379         1.3     0.0
    55             0.5409473485       14.7199272401         118724.2199         2.1     2.0
    89             0.5409473485       14.7199272401         118724.2199         2.1     2.0
    56             0.5920661109       16.1109396267         129943.4914         1.1     0.0
    36             0.6008289900       16.3493897146         131866.7211         1.9     1.0
    24             0.6008289900       16.3493897146         131866.7211         1.9     1.0
    25             0.6462175970       17.5844766310         141828.3689         1.8     1.0
    37             0.6462175970       17.5844766310         141828.3689         1.8     1.0
    31             0.6617046548       18.0059009422         145227.3852         1.2     1.0
    19             0.6617046548       18.0059009422         145227.3852         1.2     1.0
    20             0.7112670210       19.3545616318         156105.0672         1.5     1.0
    32             0.7112670210       19.3545616318         156105.0672         1.5     1.0
    49             0.7430416986       20.2191946566         163078.8029         0.9     0.0
    38             0.7779672719       21.1695679220         170744.0802         1.2     1.0
    26             0.7779672719       21.1695679220         170744.0802         1.2     1.0
     3             0.7928888539       21.5756048524         174018.9889         1.8     0.0
    44             0.8038096426       21.8727746529         176415.8250         1.9     2.0
     4             0.8038096426       21.8727746529         176415.8250         1.9     2.0
    87             0.8131962950       22.1281984758         178475.9571         1.5     1.0
    75             0.8131962950       22.1281984758         178475.9571         1.5     1.0
     5             0.8381276431       22.8066150206         183947.7555         1.0     0.0
    99             0.8664993257       23.5786478338         190174.6201         0.0     0.0
    82             0.8902610989       24.2252386210         195389.7265         1.4     1.0
    70             0.8902610989       24.2252386210         195389.7265         1.4     1.0
    83             0.9369344104       25.4952841273         205633.3343         2.9     3.0
    71             0.9369344104       25.4952841273         205633.3343         2.9     3.0
    33             0.9373299078       25.5060461607         205720.1360         1.6     1.0
    21             0.9373299078       25.5060461607         205720.1360         1.6     1.0
    65             0.9480238076       25.7970419995         208067.1757         1.4     1.0
    77             0.9480238076       25.7970419995         208067.1757         1.4     1.0
    60             0.9505194670       25.8649523503         208614.9096         1.2     0.0
    72             0.9516311400       25.8952025137         208858.8936         1.0     1.0
    84             0.9516311400       25.8952025137         208858.8936         1.0     1.0
    73             0.9588494255       26.0916220689         210443.1242         1.3     1.0
    85             0.9588494255       26.0916220689         210443.1242         1.3     1.0
    61             0.9646933295       26.2506427967         211725.7129         1.9     2.0
    95             0.9646933295       26.2506427967         211725.7129         1.9     2.0
    96             0.9925693621       27.0091882868         217843.7948         1.3     0.0
    66             1.0121692628       27.5425287556         222145.4758         3.1     3.0
    78             1.0121692628       27.5425287556         222145.4758         3.1     3.0
    79             1.0210996713       27.7855375525         224105.4740         2.0     1.0
    67             1.0210996713       27.7855375526         224105.4740         2.0     1.0
    62             1.0227051700       27.8292253978         224457.8402         1.2     0.0
    90             1.0537482099       28.6739495449         231270.9999         1.6     0.0
    74             1.0598586200       28.8402222752         232612.0799         0.9     1.0
    86             1.0598586200       28.8402222752         232612.0799         0.9     1.0
    80             1.1073498165       30.1325235656         243035.1928         1.3     1.0
    68             1.1073498165       30.1325235656         243035.1928         1.3     1.0
    54             1.1242288294       30.5918249060         246739.7079         1.1     0.0
    16             1.1326606387       30.8212661247         248590.2761         0.8     0.0
    17             1.1379687957       30.9657084368         249755.2819         0.8     0.0
    50             1.1770801155       32.0299816652         258339.2244         0.8     0.0
    30             1.1773517839       32.0373741382         258398.8487         0.6     1.0
    42             1.1773517839       32.0373741382         258398.8487         0.6     1.0
    51             1.2281056402       33.4184569263         269538.0327         1.9     2.0
    13             1.2281056402       33.4184569263         269538.0327         1.9     2.0
    97             1.2322111338       33.5301730998         270439.0844         0.6     0.0
    14             1.2417696044       33.7902723344         272536.9262         1.0     0.0
    39             1.2488259322       33.9822847957         274085.6111         1.1     1.0
    27             1.2488259322       33.9822847957         274085.6111         1.1     1.0
    57             1.2667406578       34.4697693117         278017.4389         1.8     2.0
    91             1.2667406578       34.4697693117         278017.4389         1.8     2.0
    52             1.2859073084       34.9913204459         282224.0325         1.1     0.0
    53             1.2873926686       35.0317391557         282550.0314         2.3     2.0
    15             1.2873926686       35.0317391557         282550.0314         2.3     2.0
    28             1.2887755171       35.0693683804         282853.5315         2.6     3.0
    40             1.2887755171       35.0693683804         282853.5315         2.6     3.0
     6             1.2888457613       35.0712798215         282868.9483         1.0     0.0
    45             1.2926104349       35.1737218097         283695.1987         2.1     2.0
     7             1.2926104349       35.1737218097         283695.1987         2.1     2.0
    29             1.3029994939       35.4564225069         285975.3336         1.0     1.0
    41             1.3029994939       35.4564225069         285975.3336         1.0     1.0
    22             1.3205847827       35.9349425920         289834.8584         1.1     1.0
    34             1.3205847827       35.9349425920         289834.8584         1.1     1.0
    46             1.3578492933       36.9489615832         298013.4731         0.4     0.0
     8             1.3712185147       37.3127566309         300947.6780         1.3     0.0
    23             1.3783271283       37.5061918612         302507.8384         2.6     3.0
    35             1.3783271283       37.5061918612         302507.8384         2.6     3.0
    47             1.4017996161       38.1449107944         307659.4540         2.2     2.0
     9             1.4017996161       38.1449107944         307659.4540         2.2     2.0
    10             1.4446246978       39.3102406320         317058.4730         0.9     0.0
    11             1.5042826912       40.9336173331         330151.8891         0.7     0.0
    98             1.5246447700       41.4876977244         334620.8489         1.0     0.0
    63             1.5793564040       42.9764771307         346628.6646         0.7     0.0
    92             1.5902237766       43.2721934033         349013.7772         0.9     0.0
    12             1.7588368274       47.8603882552         386020.0643         0.3     0.0
    18             1.8002363556       48.9869268054         395106.2105         0.4     0.0

++ Dipole transition strengths (spin-free states):
   -----------------------------------------------
     for osc. strength at least  1.00000000E-05

      From   To        Osc. strength     Einstein coefficients Ax, Ay, Az (sec-1)    Total A (sec-1)
     -----------------------------------------------------------------------------------------------
        48   94       2.09643754E-01  0.00000000E+00  0.00000000E+00  1.37942997E+09  1.37942997E+09
        48   36       5.04702232E-02  5.85393461E+08  0.00000000E+00  0.00000000E+00  5.85393461E+08
        48   24       5.04702232E-02  0.00000000E+00  5.85393461E+08  0.00000000E+00  5.85393461E+08
        48   25       8.47461178E-02  0.00000000E+00  1.13707276E+09  0.00000000E+00  1.13707276E+09
        48   37       8.47461178E-02  1.13707276E+09  0.00000000E+00  0.00000000E+00  1.13707276E+09
        48   38       4.21220912E-02  8.19112326E+08  0.00000000E+00  0.00000000E+00  8.19112326E+08
        48   26       4.21220912E-02  0.00000000E+00  8.19112326E+08  0.00000000E+00  8.19112326E+08
        48   96       8.26615379E-03  0.00000000E+00  0.00000000E+00  2.61659252E+08  2.61659252E+08
        48   97       1.10610806E+00  0.00000000E+00  0.00000000E+00  5.39608394E+10  5.39608394E+10
        48   39       2.26530194E-04  1.13511744E+07  0.00000000E+00  0.00000000E+00  1.13511744E+07
        48   27       2.26530194E-04  0.00000000E+00  1.13511744E+07  0.00000000E+00  1.13511744E+07
        48   29       1.03495725E-03  0.00000000E+00  5.64575190E+07  0.00000000E+00  5.64575190E+07
        48   41       1.03495725E-03  5.64575190E+07  0.00000000E+00  0.00000000E+00  5.64575190E+07
        48   98       4.82653001E-02  0.00000000E+00  0.00000000E+00  3.60481707E+09  3.60481707E+09
        43   89       1.96248312E-01  0.00000000E+00  0.00000000E+00  1.59309355E+09  1.59309355E+09
        43   31       5.37219003E-02  6.70811433E+08  0.00000000E+00  0.00000000E+00  6.70811433E+08
        43   19       5.37219003E-02  0.00000000E+00  6.70811433E+08  0.00000000E+00  6.70811433E+08
        43   20       4.72919969E-02  0.00000000E+00  6.88151978E+08  0.00000000E+00  6.88151978E+08
        43   32       4.72919969E-02  6.88151978E+08  0.00000000E+00  0.00000000E+00  6.88151978E+08
        43   33       1.11007127E-01  2.88276159E+09  0.00000000E+00  0.00000000E+00  2.88276159E+09
        43   21       1.11007127E-01  0.00000000E+00  2.88276159E+09  0.00000000E+00  2.88276159E+09
        43   91       1.10489895E+00  0.00000000E+00  0.00000000E+00  5.35723698E+10  5.35723698E+10
        43   22       1.76620675E-05  0.00000000E+00  9.33083455E+05  0.00000000E+00  9.33083455E+05
        43   34       1.76620675E-05  9.33083455E+05  0.00000000E+00  0.00000000E+00  9.33083455E+05
        43   23       2.65882028E-04  0.00000000E+00  1.53400288E+07  0.00000000E+00  1.53400288E+07
        43   35       2.65882028E-04  1.53400288E+07  0.00000000E+00  0.00000000E+00  1.53400288E+07
         1   55       1.96248312E-01  0.00000000E+00  0.00000000E+00  1.59309355E+09  1.59309355E+09
         1   31       5.37219003E-02  0.00000000E+00  6.70811433E+08  0.00000000E+00  6.70811433E+08
         1   19       5.37219003E-02  6.70811433E+08  0.00000000E+00  0.00000000E+00  6.70811433E+08
         1   20       4.72919969E-02  6.88151978E+08  0.00000000E+00  0.00000000E+00  6.88151978E+08
         1   32       4.72919969E-02  0.00000000E+00  6.88151978E+08  0.00000000E+00  6.88151978E+08
         1   33       1.11007127E-01  0.00000000E+00  2.88276159E+09  0.00000000E+00  2.88276159E+09
         1   21       1.11007127E-01  2.88276159E+09  0.00000000E+00  0.00000000E+00  2.88276159E+09
         1   57       1.10489895E+00  0.00000000E+00  0.00000000E+00  5.35723698E+10  5.35723698E+10
         1   22       1.76620675E-05  9.33083455E+05  0.00000000E+00  0.00000000E+00  9.33083455E+05
         1   34       1.76620675E-05  0.00000000E+00  9.33083455E+05  0.00000000E+00  9.33083455E+05
         1   23       2.65882028E-04  1.53400288E+07  0.00000000E+00  0.00000000E+00  1.53400288E+07
         1   35       2.65882028E-04  0.00000000E+00  1.53400288E+07  0.00000000E+00  1.53400288E+07
         2   56       1.94667281E-01  0.00000000E+00  0.00000000E+00  1.76739302E+09  1.76739302E+09
         2   31       9.54290362E-02  0.00000000E+00  1.10827900E+09  0.00000000E+00  1.10827900E+09
         2   19       9.54290362E-02  1.10827900E+09  0.00000000E+00  0.00000000E+00  1.10827900E+09
         2   20       5.36652721E-05  7.30242850E+05  0.00000000E+00  0.00000000E+00  7.30242850E+05
         2   32       5.36652721E-05  0.00000000E+00  7.30242850E+05  0.00000000E+00  7.30242850E+05
         2   33       6.59244418E-02  0.00000000E+00  1.62853455E+09  0.00000000E+00  1.62853455E+09
         2   21       6.59244418E-02  1.62853455E+09  0.00000000E+00  0.00000000E+00  1.62853455E+09
         2   22       6.72761247E-04  3.43223956E+07  0.00000000E+00  0.00000000E+00  3.43223956E+07
         2   34       6.72761247E-04  0.00000000E+00  3.43223956E+07  0.00000000E+00  3.43223956E+07
        88   64       6.47541434E-03  0.00000000E+00  4.40516744E+06  0.00000000E+00  4.40516744E+06
        88   76       6.47541434E-03  4.40516744E+06  0.00000000E+00  0.00000000E+00  4.40516744E+06
        88   65       1.08783935E-03  0.00000000E+00  1.57174893E+07  0.00000000E+00  1.57174893E+07
        88   77       1.08783935E-03  1.57174893E+07  0.00000000E+00  0.00000000E+00  1.57174893E+07
        88   79       6.25071212E-02  1.11068295E+09  0.00000000E+00  0.00000000E+00  1.11068295E+09
        88   67       6.25071212E-02  0.00000000E+00  1.11068295E+09  0.00000000E+00  1.11068295E+09
        88   80       1.16923312E-01  2.58746764E+09  0.00000000E+00  0.00000000E+00  2.58746764E+09
        88   68       1.16923312E-01  0.00000000E+00  2.58746764E+09  0.00000000E+00  2.58746764E+09
        88   46       7.17126949E-02  0.00000000E+00  0.00000000E+00  2.68957971E+09  2.68957971E+09
        93   81       3.13266365E-03  7.66346823E+05  0.00000000E+00  0.00000000E+00  7.66346823E+05
        93   69       3.13266365E-03  0.00000000E+00  7.66346823E+05  0.00000000E+00  7.66346823E+05
        93   82       7.59109967E-05  8.88561945E+05  0.00000000E+00  0.00000000E+00  8.88561945E+05
        93   70       7.59109967E-05  0.00000000E+00  8.88561945E+05  0.00000000E+00  8.88561945E+05
        93   83       3.70549945E-03  5.03413731E+07  0.00000000E+00  0.00000000E+00  5.03413731E+07
        93   71       3.70549945E-03  0.00000000E+00  5.03413731E+07  0.00000000E+00  5.03413731E+07
        93   72       2.97751241E-04  0.00000000E+00  4.23004242E+06  0.00000000E+00  4.23004242E+06
        93   84       2.97751241E-04  4.23004242E+06  0.00000000E+00  0.00000000E+00  4.23004242E+06
        93   73       2.10333830E-02  0.00000000E+00  3.05336204E+08  0.00000000E+00  3.05336204E+08
        93   85       2.10333830E-02  3.05336204E+08  0.00000000E+00  0.00000000E+00  3.05336204E+08
        93   74       8.02995875E-02  0.00000000E+00  1.54235572E+09  0.00000000E+00  1.54235572E+09
        93   86       8.02995875E-02  1.54235572E+09  0.00000000E+00  0.00000000E+00  1.54235572E+09
        93   51       1.33543861E-02  0.00000000E+00  0.00000000E+00  3.80283439E+08  3.80283439E+08
        93   53       1.88053481E-03  0.00000000E+00  0.00000000E+00  6.05078303E+07  6.05078303E+07
        58   81       3.13266365E-03  0.00000000E+00  7.66346823E+05  0.00000000E+00  7.66346823E+05
        58   69       3.13266365E-03  7.66346823E+05  0.00000000E+00  0.00000000E+00  7.66346823E+05
        58   82       7.59109967E-05  0.00000000E+00  8.88561945E+05  0.00000000E+00  8.88561945E+05
        58   70       7.59109967E-05  8.88561945E+05  0.00000000E+00  0.00000000E+00  8.88561945E+05
        58   83       3.70549945E-03  0.00000000E+00  5.03413731E+07  0.00000000E+00  5.03413731E+07
        58   71       3.70549945E-03  5.03413731E+07  0.00000000E+00  0.00000000E+00  5.03413731E+07
        58   72       2.97751241E-04  4.23004242E+06  0.00000000E+00  0.00000000E+00  4.23004242E+06
        58   84       2.97751241E-04  0.00000000E+00  4.23004242E+06  0.00000000E+00  4.23004242E+06
        58   73       2.10333830E-02  3.05336204E+08  0.00000000E+00  0.00000000E+00  3.05336204E+08
        58   85       2.10333830E-02  0.00000000E+00  3.05336204E+08  0.00000000E+00  3.05336204E+08
        58   74       8.02995875E-02  1.54235572E+09  0.00000000E+00  0.00000000E+00  1.54235572E+09
        58   86       8.02995875E-02  0.00000000E+00  1.54235572E+09  0.00000000E+00  1.54235572E+09
        58   13       1.33543861E-02  0.00000000E+00  0.00000000E+00  3.80283439E+08  3.80283439E+08
        58   15       1.88053481E-03  0.00000000E+00  0.00000000E+00  6.05078303E+07  6.05078303E+07
        59   81       2.95159033E-03  0.00000000E+00  6.32658342E+05  0.00000000E+00  6.32658342E+05
        59   69       2.95159033E-03  6.32658342E+05  0.00000000E+00  0.00000000E+00  6.32658342E+05
        59   82       6.76113577E-03  0.00000000E+00  7.76847427E+07  0.00000000E+00  7.76847427E+07
        59   70       6.76113577E-03  7.76847427E+07  0.00000000E+00  0.00000000E+00  7.76847427E+07
        59   72       1.84811684E-02  2.58167334E+08  0.00000000E+00  0.00000000E+00  2.58167334E+08
        59   84       1.84811684E-02  0.00000000E+00  2.58167334E+08  0.00000000E+00  2.58167334E+08
        59   73       1.13109981E-04  1.61484095E+06  0.00000000E+00  0.00000000E+00  1.61484095E+06
        59   85       1.13109981E-04  0.00000000E+00  1.61484095E+06  0.00000000E+00  1.61484095E+06
        59   74       7.75382363E-02  1.46789884E+09  0.00000000E+00  0.00000000E+00  1.46789884E+09
        59   86       7.75382363E-02  0.00000000E+00  1.46789884E+09  0.00000000E+00  1.46789884E+09
        59   14       1.24847985E-02  0.00000000E+00  0.00000000E+00  3.61652871E+08  3.61652871E+08
        81   94       5.85648067E-04  1.16249603E+05  0.00000000E+00  0.00000000E+00  1.16249603E+05
        81   36       3.14798532E-02  0.00000000E+00  0.00000000E+00  5.20695909E+07  5.20695909E+07
        81   37       1.11301735E-02  0.00000000E+00  0.00000000E+00  2.65123414E+07  2.65123414E+07
        81   38       3.01878967E-01  0.00000000E+00  0.00000000E+00  1.58333502E+09  1.58333502E+09
        81   60       5.86089367E-02  0.00000000E+00  6.26034802E+08  0.00000000E+00  6.26034802E+08
        81   61       4.58531157E-03  0.00000000E+00  5.14158911E+07  0.00000000E+00  5.14158911E+07
        81   95       4.58531157E-03  5.14158911E+07  0.00000000E+00  0.00000000E+00  5.14158911E+07
        81   96       1.30484400E-02  1.60448468E+08  0.00000000E+00  0.00000000E+00  1.60448468E+08
        81   62       1.25295944E-01  0.00000000E+00  1.69444607E+09  0.00000000E+00  1.69444607E+09
        81   97       7.98048386E-03  1.88882947E+08  0.00000000E+00  0.00000000E+00  1.88882947E+08
        81   39       8.65890253E-04  0.00000000E+00  0.00000000E+00  2.12951235E+07  2.12951235E+07
        81   41       3.29998744E-04  0.00000000E+00  0.00000000E+00  9.15194868E+06  9.15194868E+06
        69   94       5.85648067E-04  0.00000000E+00  1.16249603E+05  0.00000000E+00  1.16249603E+05
        69   24       3.14798532E-02  0.00000000E+00  0.00000000E+00  5.20695909E+07  5.20695909E+07
        69   25       1.11301735E-02  0.00000000E+00  0.00000000E+00  2.65123414E+07  2.65123414E+07
        69   26       3.01878967E-01  0.00000000E+00  0.00000000E+00  1.58333502E+09  1.58333502E+09
        69   60       5.86089367E-02  6.26034802E+08  0.00000000E+00  0.00000000E+00  6.26034802E+08
        69   61       4.58531157E-03  5.14158911E+07  0.00000000E+00  0.00000000E+00  5.14158911E+07
        69   95       4.58531157E-03  0.00000000E+00  5.14158911E+07  0.00000000E+00  5.14158911E+07
        69   96       1.30484400E-02  0.00000000E+00  1.60448468E+08  0.00000000E+00  1.60448468E+08
        69   62       1.25295944E-01  1.69444607E+09  0.00000000E+00  0.00000000E+00  1.69444607E+09
        69   97       7.98048386E-03  0.00000000E+00  1.88882947E+08  0.00000000E+00  1.88882947E+08
        69   27       8.65890253E-04  0.00000000E+00  0.00000000E+00  2.12951235E+07  2.12951235E+07
        69   29       3.29998744E-04  0.00000000E+00  0.00000000E+00  9.15194868E+06  9.15194868E+06
        64   55       3.62586814E-04  1.62209938E+05  0.00000000E+00  0.00000000E+00  1.62209938E+05
        64   89       3.62586814E-04  0.00000000E+00  1.62209938E+05  0.00000000E+00  1.62209938E+05
        64   56       1.03665703E-04  9.52627190E+04  0.00000000E+00  0.00000000E+00  9.52627190E+04
        64   19       4.80014791E-03  0.00000000E+00  0.00000000E+00  8.79172662E+06  8.79172662E+06
        64   20       1.37271114E-04  0.00000000E+00  0.00000000E+00  3.66635679E+05  3.66635679E+05
        64   21       4.02084050E-01  0.00000000E+00  0.00000000E+00  3.41820442E+09  3.41820442E+09
        64   90       2.04525337E-02  0.00000000E+00  2.61481392E+08  0.00000000E+00  2.61481392E+08
        64   57       5.54689655E-03  1.26891281E+08  0.00000000E+00  0.00000000E+00  1.26891281E+08
        64   91       5.54689655E-03  0.00000000E+00  1.26891281E+08  0.00000000E+00  1.26891281E+08
        64   22       9.34127718E-04  0.00000000E+00  0.00000000E+00  2.41834252E+07  2.41834252E+07
        76   55       3.62586814E-04  0.00000000E+00  1.62209938E+05  0.00000000E+00  1.62209938E+05
        76   89       3.62586814E-04  1.62209938E+05  0.00000000E+00  0.00000000E+00  1.62209938E+05
        76   56       1.03665703E-04  0.00000000E+00  9.52627190E+04  0.00000000E+00  9.52627190E+04
        76   31       4.80014791E-03  0.00000000E+00  0.00000000E+00  8.79172662E+06  8.79172662E+06
        76   32       1.37271114E-04  0.00000000E+00  0.00000000E+00  3.66635679E+05  3.66635679E+05
        76   33       4.02084050E-01  0.00000000E+00  0.00000000E+00  3.41820442E+09  3.41820442E+09
        76   90       2.04525337E-02  2.61481392E+08  0.00000000E+00  0.00000000E+00  2.61481392E+08
        76   57       5.54689655E-03  0.00000000E+00  1.26891281E+08  0.00000000E+00  1.26891281E+08
        76   91       5.54689655E-03  1.26891281E+08  0.00000000E+00  0.00000000E+00  1.26891281E+08
        76   34       9.34127718E-04  0.00000000E+00  0.00000000E+00  2.41834252E+07  2.41834252E+07
        94   49       2.42895194E-01  0.00000000E+00  0.00000000E+00  6.58625006E+08  6.58625006E+08
        94   82       1.08603402E-04  6.68584974E+05  0.00000000E+00  0.00000000E+00  6.68584974E+05
        94   70       1.08603402E-04  0.00000000E+00  6.68584974E+05  0.00000000E+00  6.68584974E+05
        94   72       4.07446620E-03  0.00000000E+00  3.26097718E+07  0.00000000E+00  3.26097718E+07
        94   84       4.07446620E-03  3.26097718E+07  0.00000000E+00  0.00000000E+00  3.26097718E+07
        94   73       1.77957251E-04  0.00000000E+00  1.46576701E+06  0.00000000E+00  1.46576701E+06
        94   85       1.77957251E-04  1.46576701E+06  0.00000000E+00  0.00000000E+00  1.46576701E+06
        94   74       7.95324585E-02  0.00000000E+00  9.42526942E+08  0.00000000E+00  9.42526942E+08
        94   86       7.95324585E-02  9.42526942E+08  0.00000000E+00  0.00000000E+00  9.42526942E+08
        94   50       1.56115112E-04  0.00000000E+00  0.00000000E+00  2.63320780E+06  2.63320780E+06
        94   52       1.07699812E-02  0.00000000E+00  0.00000000E+00  2.40327022E+08  2.40327022E+08
        55    4       2.37804508E-01  0.00000000E+00  0.00000000E+00  5.27943629E+08  5.27943629E+08
        55   65       7.48800711E-04  3.98684276E+06  0.00000000E+00  0.00000000E+00  3.98684276E+06
        55   77       7.48800711E-04  0.00000000E+00  3.98684276E+06  0.00000000E+00  3.98684276E+06
        55   66       1.97488704E-03  1.40897764E+07  0.00000000E+00  0.00000000E+00  1.40897764E+07
        55   78       1.97488704E-03  0.00000000E+00  1.40897764E+07  0.00000000E+00  1.40897764E+07
        55   79       2.14912804E-03  0.00000000E+00  1.59195666E+07  0.00000000E+00  1.59195666E+07
        55   67       2.14912804E-03  1.59195666E+07  0.00000000E+00  0.00000000E+00  1.59195666E+07
        55   80       1.33095847E-02  0.00000000E+00  1.37191013E+08  0.00000000E+00  1.37191013E+08
        55   68       1.33095847E-02  1.37191013E+08  0.00000000E+00  0.00000000E+00  1.37191013E+08
        55    7       6.93562697E-03  0.00000000E+00  0.00000000E+00  1.25905023E+08  1.25905023E+08
        55    9       1.09478199E-01  0.00000000E+00  0.00000000E+00  2.60672839E+09  2.60672839E+09
        55   12       7.19611053E-01  0.00000000E+00  0.00000000E+00  3.42944992E+10  3.42944992E+10
        89   44       2.37804508E-01  0.00000000E+00  0.00000000E+00  5.27943629E+08  5.27943629E+08
        89   65       7.48800711E-04  0.00000000E+00  3.98684276E+06  0.00000000E+00  3.98684276E+06
        89   77       7.48800711E-04  3.98684276E+06  0.00000000E+00  0.00000000E+00  3.98684276E+06
        89   66       1.97488704E-03  0.00000000E+00  1.40897764E+07  0.00000000E+00  1.40897764E+07
        89   78       1.97488704E-03  1.40897764E+07  0.00000000E+00  0.00000000E+00  1.40897764E+07
        89   79       2.14912804E-03  1.59195666E+07  0.00000000E+00  0.00000000E+00  1.59195666E+07
        89   67       2.14912804E-03  0.00000000E+00  1.59195666E+07  0.00000000E+00  1.59195666E+07
        89   80       1.33095847E-02  1.37191013E+08  0.00000000E+00  0.00000000E+00  1.37191013E+08
        89   68       1.33095847E-02  0.00000000E+00  1.37191013E+08  0.00000000E+00  1.37191013E+08
        89   45       6.93562697E-03  0.00000000E+00  0.00000000E+00  1.25905023E+08  1.25905023E+08
        89   47       1.09478199E-01  0.00000000E+00  0.00000000E+00  2.60672839E+09  2.60672839E+09
        56    3       2.44714422E-02  0.00000000E+00  0.00000000E+00  3.17099997E+07  3.17099997E+07
        56    5       2.02630369E-01  0.00000000E+00  0.00000000E+00  3.94187515E+08  3.94187515E+08
        56   65       1.01088859E-05  4.11538956E+04  0.00000000E+00  0.00000000E+00  4.11538956E+04
        56   77       1.01088859E-05  0.00000000E+00  4.11538956E+04  0.00000000E+00  4.11538956E+04
        56   79       9.36874125E-05  0.00000000E+00  5.54082787E+05  0.00000000E+00  5.54082787E+05
        56   67       9.36874125E-05  5.54082787E+05  0.00000000E+00  0.00000000E+00  5.54082787E+05
        56   80       7.83824553E-03  0.00000000E+00  6.68686515E+07  0.00000000E+00  6.68686515E+07
        56   68       7.83824553E-03  6.68686515E+07  0.00000000E+00  0.00000000E+00  6.68686515E+07
        56    6       1.29645669E-02  0.00000000E+00  0.00000000E+00  2.02236626E+08  2.02236626E+08
        56    8       3.98794729E-02  0.00000000E+00  0.00000000E+00  7.77866597E+08  7.77866597E+08
        56   10       3.00576999E-02  0.00000000E+00  0.00000000E+00  7.01964409E+08  7.01964409E+08
        56   11       2.55710070E-02  0.00000000E+00  0.00000000E+00  6.83682774E+08  6.83682774E+08
        36   49       1.46080901E-04  9.49251160E+04  0.00000000E+00  0.00000000E+00  9.49251160E+04
        36   82       1.84907095E-03  0.00000000E+00  0.00000000E+00  4.97688811E+06  4.97688811E+06
        36   85       1.30042435E-04  0.00000000E+00  0.00000000E+00  5.35564286E+05  5.35564286E+05
        36   86       7.17137036E-03  0.00000000E+00  0.00000000E+00  4.85505858E+07  4.85505858E+07
        36   50       6.22463682E-03  6.64122927E+07  0.00000000E+00  0.00000000E+00  6.64122927E+07
        36   51       8.96409798E-03  1.13327608E+08  0.00000000E+00  0.00000000E+00  1.13327608E+08
        36   13       8.96409798E-03  0.00000000E+00  1.13327608E+08  0.00000000E+00  1.13327608E+08
        36   14       6.91876072E-03  0.00000000E+00  9.13218664E+07  0.00000000E+00  9.13218664E+07
        36   52       3.97149713E-05  5.98887960E+05  0.00000000E+00  0.00000000E+00  5.98887960E+05
        36   53       2.73250322E-03  4.13840712E+07  0.00000000E+00  0.00000000E+00  4.13840712E+07
        36   15       2.73250322E-03  0.00000000E+00  4.13840712E+07  0.00000000E+00  4.13840712E+07
        24   49       1.46080901E-04  0.00000000E+00  9.49251160E+04  0.00000000E+00  9.49251160E+04
        24   70       1.84907095E-03  0.00000000E+00  0.00000000E+00  4.97688811E+06  4.97688811E+06
        24   73       1.30042435E-04  0.00000000E+00  0.00000000E+00  5.35564286E+05  5.35564286E+05
        24   74       7.17137036E-03  0.00000000E+00  0.00000000E+00  4.85505858E+07  4.85505858E+07
        24   50       6.22463682E-03  0.00000000E+00  6.64122927E+07  0.00000000E+00  6.64122927E+07
        24   51       8.96409798E-03  0.00000000E+00  1.13327608E+08  0.00000000E+00  1.13327608E+08
        24   13       8.96409798E-03  1.13327608E+08  0.00000000E+00  0.00000000E+00  1.13327608E+08
        24   14       6.91876072E-03  9.13218664E+07  0.00000000E+00  0.00000000E+00  9.13218664E+07
        24   52       3.97149712E-05  0.00000000E+00  5.98887959E+05  0.00000000E+00  5.98887959E+05
        24   53       2.73250322E-03  0.00000000E+00  4.13840712E+07  0.00000000E+00  4.13840712E+07
        24   15       2.73250322E-03  4.13840712E+07  0.00000000E+00  0.00000000E+00  4.13840712E+07
        25   49       3.72279832E-04  0.00000000E+00  1.12136590E+05  0.00000000E+00  1.12136590E+05
        25   70       3.00380414E-03  0.00000000E+00  0.00000000E+00  5.74800306E+06  5.74800306E+06
        25   72       1.36926734E-03  0.00000000E+00  0.00000000E+00  4.10370105E+06  4.10370105E+06
        25   73       6.25456509E-04  0.00000000E+00  0.00000000E+00  1.96414878E+06  1.96414878E+06
        25   74       9.60262286E-05  0.00000000E+00  0.00000000E+00  5.27895503E+05  5.27895503E+05
        25   50       4.65398124E-03  0.00000000E+00  4.21404955E+07  0.00000000E+00  4.21404955E+07
        25   51       1.77746759E-02  0.00000000E+00  1.93371043E+08  0.00000000E+00  1.93371043E+08
        25   13       1.77746759E-02  1.93371043E+08  0.00000000E+00  0.00000000E+00  1.93371043E+08
        25   14       9.89358324E-03  1.12746711E+08  0.00000000E+00  0.00000000E+00  1.12746711E+08
        25   52       4.85858671E-02  0.00000000E+00  6.38792153E+08  0.00000000E+00  6.38792153E+08
        25   53       4.16168329E-02  0.00000000E+00  5.49709405E+08  0.00000000E+00  5.49709405E+08
        25   15       4.16168329E-02  5.49709406E+08  0.00000000E+00  0.00000000E+00  5.49709406E+08
        37   49       3.72279832E-04  1.12136590E+05  0.00000000E+00  0.00000000E+00  1.12136590E+05
        37   82       3.00380414E-03  0.00000000E+00  0.00000000E+00  5.74800306E+06  5.74800306E+06
        37   84       1.36926734E-03  0.00000000E+00  0.00000000E+00  4.10370105E+06  4.10370105E+06
        37   85       6.25456509E-04  0.00000000E+00  0.00000000E+00  1.96414878E+06  1.96414878E+06
        37   86       9.60262286E-05  0.00000000E+00  0.00000000E+00  5.27895503E+05  5.27895503E+05
        37   50       4.65398124E-03  4.21404955E+07  0.00000000E+00  0.00000000E+00  4.21404955E+07
        37   51       1.77746759E-02  1.93371043E+08  0.00000000E+00  0.00000000E+00  1.93371043E+08
        37   13       1.77746759E-02  0.00000000E+00  1.93371043E+08  0.00000000E+00  1.93371043E+08
        37   14       9.89358324E-03  0.00000000E+00  1.12746711E+08  0.00000000E+00  1.12746711E+08
        37   52       4.85858671E-02  6.38792153E+08  0.00000000E+00  0.00000000E+00  6.38792153E+08
        37   53       4.16168329E-02  5.49709406E+08  0.00000000E+00  0.00000000E+00  5.49709406E+08
        37   15       4.16168329E-02  0.00000000E+00  5.49709406E+08  0.00000000E+00  5.49709406E+08
        31    3       5.62919479E-03  0.00000000E+00  3.11257780E+06  0.00000000E+00  3.11257780E+06
        31   44       1.54838826E-03  1.00463753E+06  0.00000000E+00  0.00000000E+00  1.00463753E+06
        31    4       1.54838826E-03  0.00000000E+00  1.00463753E+06  0.00000000E+00  1.00463753E+06
        31    5       1.03128527E-02  0.00000000E+00  1.03133568E+07  0.00000000E+00  1.03133568E+07
        31   77       1.21151034E-04  0.00000000E+00  0.00000000E+00  3.19108820E+05  3.19108820E+05
        31   79       1.38594863E-02  0.00000000E+00  0.00000000E+00  5.75177805E+07  5.75177805E+07
        31   80       3.81511513E-02  0.00000000E+00  0.00000000E+00  2.43442794E+08  2.43442794E+08
        31    6       3.87347677E-03  0.00000000E+00  4.89488366E+07  0.00000000E+00  4.89488366E+07
        31   45       1.82556387E-02  2.33473142E+08  0.00000000E+00  0.00000000E+00  2.33473142E+08
        31    7       1.82556387E-02  0.00000000E+00  2.33473142E+08  0.00000000E+00  2.33473142E+08
        31   46       1.55113466E-03  2.41523477E+07  0.00000000E+00  0.00000000E+00  2.41523477E+07
        31    8       1.47884873E-02  0.00000000E+00  2.39197371E+08  0.00000000E+00  2.39197371E+08
        31   47       1.67110595E-02  2.94096437E+08  0.00000000E+00  0.00000000E+00  2.94096437E+08
        31    9       1.67110595E-02  0.00000000E+00  2.94096437E+08  0.00000000E+00  2.94096437E+08
        31   10       1.59820739E-01  0.00000000E+00  3.14759494E+09  0.00000000E+00  3.14759494E+09
        31   11       3.66264118E-02  0.00000000E+00  8.35459737E+08  0.00000000E+00  8.35459737E+08
        31   12       1.25102166E-04  0.00000000E+00  4.83830915E+06  0.00000000E+00  4.83830915E+06
        19    3       5.62919479E-03  3.11257780E+06  0.00000000E+00  0.00000000E+00  3.11257780E+06
        19   44       1.54838826E-03  0.00000000E+00  1.00463753E+06  0.00000000E+00  1.00463753E+06
        19    4       1.54838826E-03  1.00463753E+06  0.00000000E+00  0.00000000E+00  1.00463753E+06
        19    5       1.03128527E-02  1.03133568E+07  0.00000000E+00  0.00000000E+00  1.03133568E+07
        19   65       1.21151034E-04  0.00000000E+00  0.00000000E+00  3.19108820E+05  3.19108820E+05
        19   67       1.38594863E-02  0.00000000E+00  0.00000000E+00  5.75177805E+07  5.75177805E+07
        19   68       3.81511513E-02  0.00000000E+00  0.00000000E+00  2.43442794E+08  2.43442794E+08
        19    6       3.87347677E-03  4.89488366E+07  0.00000000E+00  0.00000000E+00  4.89488366E+07
        19   45       1.82556387E-02  0.00000000E+00  2.33473142E+08  0.00000000E+00  2.33473142E+08
        19    7       1.82556387E-02  2.33473142E+08  0.00000000E+00  0.00000000E+00  2.33473142E+08
        19   46       1.55113466E-03  0.00000000E+00  2.41523477E+07  0.00000000E+00  2.41523477E+07
        19    8       1.47884873E-02  2.39197371E+08  0.00000000E+00  0.00000000E+00  2.39197371E+08
        19   47       1.67110595E-02  0.00000000E+00  2.94096437E+08  0.00000000E+00  2.94096437E+08
        19    9       1.67110595E-02  2.94096437E+08  0.00000000E+00  0.00000000E+00  2.94096437E+08
        19   10       1.59820739E-01  3.14759494E+09  0.00000000E+00  0.00000000E+00  3.14759494E+09
        19   11       3.66264118E-02  8.35459737E+08  0.00000000E+00  0.00000000E+00  8.35459737E+08
        19   12       1.25102166E-04  4.83830915E+06  0.00000000E+00  0.00000000E+00  4.83830915E+06
        20    3       7.96782671E-04  1.70554605E+05  0.00000000E+00  0.00000000E+00  1.70554605E+05
        20   44       5.42122665E-04  0.00000000E+00  1.49173625E+05  0.00000000E+00  1.49173625E+05
        20    4       5.42122665E-04  1.49173625E+05  0.00000000E+00  0.00000000E+00  1.49173625E+05
        20    5       1.46437406E-03  7.57210422E+05  0.00000000E+00  0.00000000E+00  7.57210422E+05
        20   65       8.49512658E-03  0.00000000E+00  0.00000000E+00  1.52997950E+07  1.52997950E+07
        20   67       5.34324730E-03  0.00000000E+00  0.00000000E+00  1.64805052E+07  1.64805052E+07
        20   68       5.98214377E-04  0.00000000E+00  0.00000000E+00  3.01536359E+06  3.01536359E+06
        20    6       8.33774102E-03  8.93679267E+07  0.00000000E+00  0.00000000E+00  8.93679267E+07
        20   45       5.72690730E-03  0.00000000E+00  6.21865624E+07  0.00000000E+00  6.21865624E+07
        20    7       5.72690730E-03  6.21865624E+07  0.00000000E+00  0.00000000E+00  6.21865624E+07
        20   46       1.63580950E-01  0.00000000E+00  2.19730931E+09  0.00000000E+00  2.19730931E+09
        20    8       5.01026853E-04  7.01125751E+06  0.00000000E+00  0.00000000E+00  7.01125751E+06
        20   47       4.81400280E-02  0.00000000E+00  7.37540016E+08  0.00000000E+00  7.37540016E+08
        20    9       4.81400280E-02  7.37540016E+08  0.00000000E+00  0.00000000E+00  7.37540016E+08
        20   10       1.49199115E-03  2.57815376E+07  0.00000000E+00  0.00000000E+00  2.57815376E+07
        20   11       1.52053151E-01  3.07234404E+09  0.00000000E+00  0.00000000E+00  3.07234404E+09
        20   12       2.71866372E-03  9.58588731E+07  0.00000000E+00  0.00000000E+00  9.58588731E+07
        32    3       7.96782671E-04  0.00000000E+00  1.70554605E+05  0.00000000E+00  1.70554605E+05
        32   44       5.42122665E-04  1.49173625E+05  0.00000000E+00  0.00000000E+00  1.49173625E+05
        32    4       5.42122665E-04  0.00000000E+00  1.49173625E+05  0.00000000E+00  1.49173625E+05
        32    5       1.46437406E-03  0.00000000E+00  7.57210422E+05  0.00000000E+00  7.57210422E+05
        32   77       8.49512658E-03  0.00000000E+00  0.00000000E+00  1.52997950E+07  1.52997950E+07
        32   79       5.34324730E-03  0.00000000E+00  0.00000000E+00  1.64805052E+07  1.64805052E+07
        32   80       5.98214377E-04  0.00000000E+00  0.00000000E+00  3.01536359E+06  3.01536359E+06
        32    6       8.33774102E-03  0.00000000E+00  8.93679267E+07  0.00000000E+00  8.93679267E+07
        32   45       5.72690730E-03  6.21865624E+07  0.00000000E+00  0.00000000E+00  6.21865624E+07
        32    7       5.72690730E-03  0.00000000E+00  6.21865624E+07  0.00000000E+00  6.21865624E+07
        32   46       1.63580950E-01  2.19730931E+09  0.00000000E+00  0.00000000E+00  2.19730931E+09
        32    8       5.01026853E-04  0.00000000E+00  7.01125751E+06  0.00000000E+00  7.01125751E+06
        32   47       4.81400280E-02  7.37540016E+08  0.00000000E+00  0.00000000E+00  7.37540016E+08
        32    9       4.81400280E-02  0.00000000E+00  7.37540016E+08  0.00000000E+00  7.37540016E+08
        32   10       1.49199115E-03  0.00000000E+00  2.57815376E+07  0.00000000E+00  2.57815376E+07
        32   11       1.52053151E-01  0.00000000E+00  3.07234404E+09  0.00000000E+00  3.07234404E+09
        32   12       2.71866372E-03  0.00000000E+00  9.58588731E+07  0.00000000E+00  9.58588731E+07
        49   38       1.16859211E-03  4.57995195E+04  0.00000000E+00  0.00000000E+00  4.57995195E+04
        49   26       1.16859211E-03  0.00000000E+00  4.57995195E+04  0.00000000E+00  4.57995195E+04
        49   96       1.64576358E-05  0.00000000E+00  0.00000000E+00  3.29242379E+04  3.29242379E+04
        49   97       6.88448183E-04  0.00000000E+00  0.00000000E+00  5.29298627E+06  5.29298627E+06
        49   39       8.76133933E-05  7.20131749E+05  0.00000000E+00  0.00000000E+00  7.20131749E+05
        49   27       8.76133933E-05  0.00000000E+00  7.20131749E+05  0.00000000E+00  7.20131749E+05
        49   29       5.02048553E-03  0.00000000E+00  5.05786452E+07  0.00000000E+00  5.05786452E+07
        49   41       5.02048553E-03  5.05786452E+07  0.00000000E+00  0.00000000E+00  5.05786452E+07
        49   98       1.83600027E-04  0.00000000E+00  0.00000000E+00  3.60376230E+06  3.60376230E+06
        38   82       7.66730309E-04  0.00000000E+00  0.00000000E+00  3.10645652E+05  3.10645652E+05
        38   84       9.20816969E-03  0.00000000E+00  0.00000000E+00  8.92284065E+06  8.92284065E+06
        38   85       1.54699336E-02  0.00000000E+00  0.00000000E+00  1.62626297E+07  1.62626297E+07
        38   86       3.14268267E-01  0.00000000E+00  0.00000000E+00  8.02370416E+08  8.02370416E+08
        38   50       1.15466384E-03  5.90959689E+06  0.00000000E+00  0.00000000E+00  5.90959689E+06
        38   51       2.44170087E-03  1.58962764E+07  0.00000000E+00  0.00000000E+00  1.58962764E+07
        38   13       2.44170087E-03  0.00000000E+00  1.58962764E+07  0.00000000E+00  1.58962764E+07
        38   14       6.62945536E-04  0.00000000E+00  4.58199478E+06  0.00000000E+00  4.58199478E+06
        38   52       9.84533087E-04  8.16142681E+06  0.00000000E+00  0.00000000E+00  8.16142681E+06
        38   53       6.48085248E-05  5.40386142E+05  0.00000000E+00  0.00000000E+00  5.40386142E+05
        38   15       6.48085248E-05  0.00000000E+00  5.40386143E+05  0.00000000E+00  5.40386143E+05
        26   70       7.66730309E-04  0.00000000E+00  0.00000000E+00  3.10645652E+05  3.10645652E+05
        26   72       9.20816969E-03  0.00000000E+00  0.00000000E+00  8.92284065E+06  8.92284065E+06
        26   73       1.54699336E-02  0.00000000E+00  0.00000000E+00  1.62626297E+07  1.62626297E+07
        26   74       3.14268267E-01  0.00000000E+00  0.00000000E+00  8.02370416E+08  8.02370416E+08
        26   50       1.15466384E-03  0.00000000E+00  5.90959689E+06  0.00000000E+00  5.90959689E+06
        26   51       2.44170087E-03  0.00000000E+00  1.58962764E+07  0.00000000E+00  1.58962764E+07
        26   13       2.44170087E-03  1.58962764E+07  0.00000000E+00  0.00000000E+00  1.58962764E+07
        26   14       6.62945536E-04  4.58199478E+06  0.00000000E+00  0.00000000E+00  4.58199478E+06
        26   52       9.84533086E-04  0.00000000E+00  8.16142681E+06  0.00000000E+00  8.16142681E+06
        26   53       6.48085249E-05  0.00000000E+00  5.40386143E+05  0.00000000E+00  5.40386143E+05
[...]
        71   61            96.451936  4.13927677E-04  1.16662973E-02
        71   95            96.451936  4.13927677E-04  1.16662973E-02
        71   28            36.092849  1.59623676E-01  1.17290274E-01
        33   77            99.748531  1.97822062E-04  7.86666529E-02
        33   79            79.482481  1.95572482E-02  9.53197506E-02
        33   80            17.687306  7.12408254E-02  8.65490140E-02
        33    6           172.941213  1.84222102E-03  6.74951578E-04
        33   45            22.614759  4.66632054E-04  3.80567608E-04
        33    7            22.614759  4.66632054E-04  3.80567608E-04
        33   46           483.635179  2.44549293E-03  4.19010542E-04
        33    8            45.748168  8.05659719E-04  1.48503690E-03
        33   47           248.616053  7.10867128E-04  2.03911186E-04
        33    9           248.616053  7.10867128E-04  2.03911186E-04
        33   10            65.192350  3.28155918E-02  1.98650796E-02
        33   11           193.488036  5.50888972E-02  1.87704065E-02
        33   12           257.384549  2.22833025E-03  6.23510515E-04
        21   65            99.748531  1.97822062E-04  7.86666529E-02
        21   67            79.482481  1.95572482E-02  9.53197506E-02
        21   68            17.687306  7.12408254E-02  8.65490140E-02
        21    6           172.941213  1.84222102E-03  6.74951578E-04
        21   45            22.614759  4.66632054E-04  3.80567608E-04
        21    7            22.614759  4.66632054E-04  3.80567608E-04
        21   46           483.635179  2.44549293E-03  4.19010542E-04
        21    8            45.748168  8.05659719E-04  1.48503690E-03
        21   47           248.616053  7.10867128E-04  2.03911186E-04
        21    9           248.616053  7.10867128E-04  2.03911186E-04
        21   10            65.192350  3.28155918E-02  1.98650796E-02
        21   11           193.488036  5.50888972E-02  1.87704065E-02
        21   12           257.384549  2.22833025E-03  6.23510515E-04
        65   90           285.129241  1.09476799E-03  2.84259899E-04
        65   57            10.407726  1.07162339E-02  9.70605434E-03
        65   91            10.407726  1.07162339E-02  9.70605434E-03
        65   22            40.047705  1.39509142E-01  9.96154427E-02
        65   92           132.864272  2.16985914E-02  9.31812817E-03
        77   90           285.129241  1.09476799E-03  2.84259899E-04
        77   57            10.407726  1.07162339E-02  9.70605434E-03
        77   91            10.407726  1.07162339E-02  9.70605434E-03
        77   34            40.047705  1.39509142E-01  9.96154427E-02
        77   92           132.864272  2.16985914E-02  9.31812817E-03
        60   72      --------------- below threshold  4.52680282E-02
        60   84      --------------- below threshold  4.52680282E-02
        60   73            99.179742  7.75116586E-05  9.44967067E-03
        60   85            99.179742  7.75116586E-05  9.44967067E-03
        60   74      ---------------  2.04708551E-04 below threshold
        60   86      ---------------  2.04708551E-04 below threshold
        60   14            14.252097  1.21824098E-02  1.42072393E-02
        72   61            92.861551  1.25350223E-05  1.75598677E-04
        72   95            92.861551  1.25350223E-05  1.75598677E-04
        72   96            85.592637  1.76877536E-04  1.22768844E-03
        72   62            87.423528  5.04553517E-05  4.01188452E-04
        72   97            61.201392  1.21178174E-02  7.51719157E-03
        72   27           264.953227  6.82078765E-04  1.86894844E-04
        72   29            28.562467  7.44805138E-02  5.79333264E-02
        72   98           137.809951  6.47395545E-03  2.72232319E-03
        72   63            62.594829  5.10336325E-03  1.36434699E-02
        84   61            92.861551  1.25350223E-05  1.75598677E-04
        84   95            92.861551  1.25350223E-05  1.75598677E-04
        84   96            85.592637  1.76877536E-04  1.22768844E-03
        84   62            87.423528  5.04553517E-05  4.01188452E-04
        84   97            61.201392  1.21178174E-02  7.51719157E-03
        84   39           264.953227  6.82078765E-04  1.86894844E-04
        84   41            28.562467  7.44805138E-02  5.79333264E-02
        84   98           137.809951  6.47395545E-03  2.72232319E-03
        84   63            62.594829  5.10336325E-03  1.36434699E-02
        73   61      --------------- below threshold  1.18209406E-03
        73   95      --------------- below threshold  1.18209406E-03
        73   96            96.491214  2.65649868E-04  7.57099031E-03
        73   62            91.913587  4.48453985E-05  5.54577181E-04
        73   97            22.867142  1.05888881E-02  8.61816098E-03
        73   29            30.034728  6.57012518E-02  5.05259271E-02
        73   98            52.843421  2.81400682E-03  5.96736843E-03
        85   61      --------------- below threshold  1.18209406E-03
        85   95      --------------- below threshold  1.18209406E-03
        85   96            96.491214  2.65649868E-04  7.57099031E-03
        85   62            91.913587  4.48453985E-05  5.54577181E-04
        85   97            22.867142  1.05888881E-02  8.61816098E-03
        85   41            30.034728  6.57012518E-02  5.05259271E-02
        85   98            52.843421  2.81400682E-03  5.96736843E-03
        61   74            90.567239  6.41086839E-05  6.79638608E-04
        61   86            90.567239  6.41086839E-05  6.79638608E-04
        61   13            18.083703  2.84065207E-02  3.46774960E-02
        61   15            15.910813  2.67649777E-02  3.18292738E-02
        95   74            90.567239  6.41086839E-05  6.79638608E-04
        95   86            90.567239  6.41086839E-05  6.79638608E-04
        95   51            18.083703  2.84065207E-02  3.46774960E-02
        95   53            15.910813  2.67649777E-02  3.18292738E-02
        96   74            88.699906  3.77110270E-05  3.33723130E-04
        96   86            88.699906  3.77110270E-05  3.33723130E-04
        96   50           344.220309  1.59650793E-03  3.59395530E-04
        96   52            35.021088  1.23162215E-02  1.89541824E-02
        66   57           303.096643  8.73260906E-03  2.16638099E-03
        66   91           303.096643  8.73260906E-03  2.16638099E-03
        66   23            25.839594  1.76351842E-01  1.40140186E-01
        78   57           303.096643  8.73260906E-03  2.16638099E-03
        78   91           303.096643  8.73260906E-03  2.16638099E-03
        78   35            25.839594  1.76351842E-01  1.40140186E-01
        79   90            99.588400  5.86606728E-05  1.42518711E-02
        79   57           201.984465  3.05100808E-03  1.01031955E-03
        79   91           201.984465  3.05100808E-03  1.01031955E-03
        79   34            11.967525  7.56184062E-03  8.58983077E-03
        79   92          2177.889656  1.28300315E-03  5.63242009E-05
        67   90            99.588400  5.86606728E-05  1.42518711E-02
        67   57           201.984465  3.05100808E-03  1.01031955E-03
        67   91           201.984465  3.05100808E-03  1.01031955E-03
        67   22            11.967525  7.56184062E-03  8.58983077E-03
        67   92          2177.889656  1.28300315E-03  5.63242009E-05
        62   74            94.441758  7.76126501E-04  1.39635257E-02
        62   86            94.441758  7.76126501E-04  1.39635257E-02
        62   14            17.268259  8.76583023E-03  1.05954863E-02
        90   80           181.398843  3.66403145E-05  1.30207766E-05
        90   68           181.398842  3.66403145E-05  1.30207766E-05
        90   46           509.415428  6.69496714E-04  1.09858839E-04
        74   97            83.627330  3.07412444E-05  1.87759505E-04
        74   27            96.151044  1.82873882E-05  4.75125940E-04
        74   29      ---------------  1.37899692E-04 below threshold
        74   98           150.785608  1.22372964E-03  4.87958480E-04
        74   63            89.156698  4.11928674E-05  3.79892277E-04
        86   97            83.627330  3.07412444E-05  1.87759505E-04
        86   39            96.151044  1.82873882E-05  4.75125940E-04
        86   41      ---------------  1.37899692E-04 below threshold
        86   98           150.785608  1.22372964E-03  4.87958480E-04
        86   63            89.156698  4.11928674E-05  3.79892277E-04
        80   57      --------------- below threshold  7.69526690E-04
        80   91      --------------- below threshold  7.69526690E-04
        80   34            82.377129  9.11667389E-05  5.17320586E-04
        80   92            54.952282  1.32419284E-03  8.54581051E-04
        68   57      --------------- below threshold  7.69526690E-04
        68   91      --------------- below threshold  7.69526690E-04
        68   22            82.377129  9.11667389E-05  5.17320586E-04
        68   92            54.952282  1.32419284E-03  8.54581051E-04
        54   30            46.613842  1.63585110E-04  3.06418585E-04
        54   42            46.613842  1.63585110E-04  3.06418585E-04
        16   30            97.412637  4.75545298E-04  1.83795360E-02
        16   42            97.412637  4.75545298E-04  1.83795360E-02
        17   30            96.951449  3.53109250E-04  1.15828556E-02
        17   42            96.951449  3.53109250E-04  1.15828556E-02
        50   97            90.729446  1.15553294E-03  1.24645505E-02
        50   39            89.133331  1.14928466E-03  1.05762367E-02
        50   27            89.133331  1.14928466E-03  1.05762367E-02
        50   29            94.208434  3.80687132E-05  6.57312960E-04
        50   41            94.208434  3.80687132E-05  6.57312960E-04
        30   18           181.581671  5.21069850E-03  1.85051054E-03
        42   18           181.581671  5.21069850E-03  1.85051054E-03
        51   39      --------------- below threshold  1.48950312E-03
        51   27      --------------- below threshold  1.48950312E-03
        51   28            62.346855  8.60088804E-04  2.28424158E-03
        51   40            62.346855  8.60088804E-04  2.28424158E-03
        51   29            97.804912  7.36705371E-05  3.35615381E-03
        51   41            97.804912  7.36705371E-05  3.35615381E-03
        13   39      --------------- below threshold  1.48950312E-03
        13   27      --------------- below threshold  1.48950312E-03
        13   28            62.346855  8.60088804E-04  2.28424158E-03
        13   40            62.346855  8.60088804E-04  2.28424158E-03
        13   29            97.804912  7.36705371E-05  3.35615381E-03
        13   41            97.804912  7.36705371E-05  3.35615381E-03
        97   52            92.013604  6.45400149E-03  8.08124422E-02
        14   39            99.857324  2.93183477E-05  2.05488459E-02
        14   27            99.857324  2.93183477E-05  2.05488459E-02
        14   29            96.591026  1.57900961E-04  4.63192090E-03
        14   41            96.591026  1.57900961E-04  4.63192090E-03
        14   63            33.731921  2.91139671E-03  4.39336214E-03
        39   52            98.111289  1.41100676E-04  7.47073950E-03
        39   53            94.833178  2.03162916E-05  3.93206735E-04
        39   15            94.833178  2.03162916E-05  3.93206735E-04
        27   52            98.111289  1.41100676E-04  7.47073950E-03
        27   53            94.833178  2.03162916E-05  3.93206734E-04
        27   15            94.833178  2.03162916E-05  3.93206735E-04
        57    7            39.281247  3.10189251E-03  2.22707119E-03
        57    9            72.462329  2.60140314E-02  9.44670705E-02
        57   12            21.973597  3.05954821E-01  2.50836926E-01
        91   45            39.281247  3.10189251E-03  2.22707119E-03
        91   47            72.462329  2.60140314E-02  9.44670705E-02
        52   29            99.615073  1.08516960E-05  2.81915739E-03
        52   41            99.615073  1.08516959E-05  2.81915739E-03
        52   98            58.393267  1.18670181E-03  2.85218692E-03
        53   28      --------------- below threshold  9.16071754E-01
        53   40      --------------- below threshold  9.16071754E-01
        53   29            99.535312  4.24409950E-05  9.13322826E-03
        53   41            99.535312  4.24409950E-05  9.13322826E-03
        15   28      --------------- below threshold  9.16071754E-01
        15   40      --------------- below threshold  9.16071754E-01
        15   29            99.535312  4.24409950E-05  9.13322826E-03
        15   41            99.535312  4.24409950E-05  9.13322826E-03
         6   22            97.730348  1.93084022E-04  8.50720738E-03
         6   34            97.730348  1.93084022E-04  8.50720738E-03
        45   22            98.938784  6.29225100E-05  5.92928190E-03
        45   34            98.938784  6.29225101E-05  5.92928190E-03
        45   23            90.711232  8.93197738E-04  9.61589013E-03
        45   35            90.711232  8.93197738E-04  9.61589013E-03
         7   22            98.938784  6.29225100E-05  5.92928190E-03
         7   34            98.938784  6.29225101E-05  5.92928191E-03
         7   23            90.711232  8.93197738E-04  9.61589013E-03
         7   35            90.711232  8.93197738E-04  9.61589013E-03
        22   46            94.594622  1.20606776E-03  2.23123653E-02
        22    8            99.331161  1.25067708E-04  1.86992336E-02
        22   47            95.376267  3.39723365E-05  7.34738226E-04
        22    9            95.376267  3.39723365E-05  7.34738226E-04
        22   10            94.524195  2.84955168E-05  5.20389510E-04
        22   11      --------------- below threshold  1.94139949E-03
        22   12            24.726870  1.68266101E-02  1.34907659E-02
        34   46            94.594622  1.20606776E-03  2.23123653E-02
        34    8            99.331161  1.25067708E-04  1.86992336E-02
        34   47            95.376267  3.39723365E-05  7.34738226E-04
        34    9            95.376267  3.39723365E-05  7.34738226E-04
        34   10            94.524195  2.84955168E-05  5.20389510E-04
        34   11      --------------- below threshold  1.94139949E-03
        34   12            24.726870  1.68266101E-02  1.34907659E-02
        46   92            20.276839  1.82639690E-02  2.29092384E-02
        23   47      --------------- below threshold  4.69417064E-02
        23    9      --------------- below threshold  4.69417064E-02
        23   12           123.201217  1.95484008E-02  8.75819631E-03
        35   47      --------------- below threshold  4.69417064E-02
        35    9      --------------- below threshold  4.69417064E-02
        35   12           123.201217  1.95484008E-02  8.75819631E-03
     ---------------------------------------------------------------

 Number of problematic transitions =                   573

--

 Electric-dipole - electric-octupole not included
 Electric-dipole - magnetic-quadrupole not included


      ****************************************************************************************************
      *                                                                                                  *
      *                                    Special properties section                                    *
      *                                                                                                  *
      ****************************************************************************************************


++ I/O STATISTICS
 
  I. General I/O information
  - - - - - - - - - - - - - - - - - - - - - - - - - - - - - - - - - - - - - - - - - - -
  Unit  Name          Flsize      Write/Read            MBytes           Write/Read
                      (MBytes)       Calls              In/Out           Time, sec.
  - - - - - - - - - - - - - - - - - - - - - - - - - - - - - - - - - - - - - - - - - - -
   1  RUNFILE           0.99 .     266/  263135 .      2.5/   1903.5 .       0/       0
   2  ANNI              0.00 .       0/       0 .      0.0/      0.0 .       0/       0
   3  ONEINT            1.54 .       0/  126040 .      0.0/ 152831.4 .       0/      18
   4  JOBIPH            1.52 .       0/     651 .      0.0/      1.5 .       0/       0
   5  JOBIPH01          1.22 .       0/     219 .      0.0/      1.3 .       0/       0
   6  JOBIPH02          1.22 .       0/     219 .      0.0/      1.3 .       0/       0
   7  JOBIPH03          1.28 .       0/     315 .      0.0/      1.4 .       0/       0
   8  JOBIPH04          1.32 .       0/     363 .      0.0/      1.4 .       0/       0
   9  JOBIPH05          1.15 .       0/     123 .      0.0/      1.3 .       0/       0
  10  JOBIPH06          1.28 .       0/     315 .      0.0/      1.4 .       0/       0
  11  JOBIPH07          1.32 .       0/     363 .      0.0/      1.4 .       0/       0
  12  JOBIPH08          1.15 .       0/     123 .      0.0/      1.3 .       0/       0
  13  JOBIPH09          1.28 .       0/     315 .      0.0/      1.4 .       0/       0
  14  JOBIPH10          1.32 .       0/     363 .      0.0/      1.4 .       0/       0
  15  JOBIPH11          1.15 .       0/     123 .      0.0/      1.3 .       0/       0
  16  JOBIPH12          1.22 .       0/     219 .      0.0/      1.3 .       0/       0
  17  JOBIPH13          1.32 .       0/     363 .      0.0/      1.4 .       0/       0
  18  JOBIPH14          1.28 .       0/     315 .      0.0/      1.4 .       0/       0
  19  JOBIPH15          1.32 .       0/     363 .      0.0/      1.4 .       0/       0
  20  JOBIPH16          1.15 .       0/     123 .      0.0/      1.3 .       0/       0
  21  JOBIPH17          1.28 .       0/     315 .      0.0/      1.4 .       0/       0
  22  JOBIPH18          1.32 .       0/     363 .      0.0/      1.4 .       0/       0
  23  JOBIPH19          1.15 .       0/     123 .      0.0/      1.3 .       0/       0
  24  JOBIPH20          1.28 .       0/     315 .      0.0/      1.4 .       0/       0
  25  JOBIPH21          1.32 .       0/     363 .      0.0/      1.4 .       0/       0
  26  JOBIPH22          1.15 .       0/     123 .      0.0/      1.3 .       0/       0
  - - - - - - - - - - - - - - - - - - - - - - - - - - - - - - - - - - - - - - - - - - -
   *  TOTAL            31.50 .     266/  395652 .      2.5/ 154766.0 .       0/      19
  - - - - - - - - - - - - - - - - - - - - - - - - - - - - - - - - - - - - - - - - - - -
 
  II. I/O Access Patterns
  - - - - - - - - - - - - - - - - - - - -
  Unit  Name               % of random
                         Write/Read calls
  - - - - - - - - - - - - - - - - - - - -
   1  RUNFILE             28.6/  11.1
   2  ANNI                 0.0/   0.0
   3  ONEINT               0.0/  99.3
   4  JOBIPH               0.0/  51.9
   5  JOBIPH01             0.0/  55.7
   6  JOBIPH02             0.0/  55.7
   7  JOBIPH03             0.0/  54.0
   8  JOBIPH04             0.0/  53.4
   9  JOBIPH05             0.0/  60.2
  10  JOBIPH06             0.0/  54.0
  11  JOBIPH07             0.0/  53.4
  12  JOBIPH08             0.0/  60.2
  13  JOBIPH09             0.0/  54.0
  14  JOBIPH10             0.0/  53.4
  15  JOBIPH11             0.0/  60.2
  16  JOBIPH12             0.0/  55.7
  17  JOBIPH13             0.0/  53.4
  18  JOBIPH14             0.0/  54.0
  19  JOBIPH15             0.0/  53.4
  20  JOBIPH16             0.0/  60.2
  21  JOBIPH17             0.0/  54.0
  22  JOBIPH18             0.0/  53.4
  23  JOBIPH19             0.0/  60.2
  24  JOBIPH20             0.0/  54.0
  25  JOBIPH21             0.0/  53.4
  26  JOBIPH22             0.0/  60.2
  - - - - - - - - - - - - - - - - - - - -
--
--- Stop Module: rassi at Thu Apr 17 10:51:46 2025 /rc=_RC_ALL_IS_WELL_ ---
--- Module rassi spent 43 seconds ---

.##################.
.# Happy landing! #.
.##################.

    Timing: Wall=43.90 User=19.70 System=20.55
