   This run of MOLCAS is using the pymolcas driver

                             OPE
                             OPE          NMOL  CASOP  ENMOLC A   SO
                 OPE        NMOLC        AS  OP EN  MO LC     AS  OP
                OPENM       OL CA        SO  PE NM  OL CA     SOP EN
                OP EN      MO   LC       AS  OP ENMOL  CASO   PENMOL
                OP  EN     MO   LC       AS  OP EN     MO     LC ASO
               OP   E  NMOL  C  AS       OP  EN MO     LC     AS  OP
               OP  E   NMO   LC AS        OPEN  MO     LCASOP EN   M
               O  PEN   MO  LCA  SO
            OPE   NMO   L   CAS    OP
        OPENMOL  CASOP     ENMOL   CASOPE
     OPENMOLCA   SOPENMOLCASOPEN   MOLCASOPE
    OPENMOLCAS   OP           EN   MOL    CAS
    OPENMOLCAS       OP  ENM        O     LCA
    OPENMOLCAS    OPEN  MOLCASO     P  E  NMO
    OPENMOLCAS     OP               E  N  MOL
    OPENMOLCA   SO           PENM   O  L  CAS    OPEN    MO    LCAS
    OPENMOLCA   SOP           ENM   O  L  CAS   OP  EN  MOLC  AS   O
    OPENMOLCA   SOPE           NM      O  LCA   S      OP  EN MO
    OPENMOLC                AS         O  PEN   M      OL  CA  SOPE
    OPENMO        LCASOPE  NMOL        C  ASO   P      ENMOLC     AS
    OPE     NMO      LCA  SO     P     E   NM   OL  CA SO  PE N   MO
          OPENMOLCA            SOPE   NMO        LCAS  O    P  ENMO
     OPENMOLCASOPENMOLCASOPENMOLCASOPENMOLCA
        OPENMOLCASOPENMOLCASOPENMOLCASOPE
            OPENMOLCASOPENMOLCASOPENM
               OPENMOLCASOPENMOLCA        version: 25.02
                   OPENMOLCASO
                       OPE                tag: 92-gf4b470f0a

 OpenMolcas is free software; you can redistribute it and/or modify it
 under the terms of the GNU Lesser General Public License version 2.1.
 OpenMolcas is distributed in the hope that it will be useful, but it
 is provided "as is" and without any express or implied warranties.
 For more details see the full text of the license in the file
 LICENSE or in <http://www.gnu.org/licenses/>.

                 Copyright (C) The OpenMolcas Authors
           For the author list and the recommended citation,
                   consult the file CONTRIBUTORS.md

           *************************************************
           * pymolcas version py2.29                       *
           *   build 2ba4516c4d154a59cba941070ba63e2c      *
           *   (after the EMIL interpreter by V. Veryazov) *
           *************************************************

configuration info
------------------
Host name: iftia91.univ.gda.pl (Linux)
C Compiler ID: GNU
C flags: -std=gnu99
Fortran Compiler ID: GNU
Fortran flags: -cpp -fdefault-integer-8 -fmax-stack-var-size=1048576
Definitions: _MOLCAS_;_I8_;_LINUX_
Parallel: OFF (GA=OFF)


   --------------------------------------------------------------------
  |
  |           Project: O2
  |    Submitted from: /scratch/tecumseh/WorkSpace/O2.0.7500
  |      Scratch area: /scratch/tecumseh/WorkSpace/O2.0.7500
  |   Save outputs to: WORKDIR
  |            Molcas: /home/tecumseh/program/OpenMolcas/build
  |
  | Scratch area is NOT empty
  |
  |    MOLCAS_DRIVER = /home/tecumseh/program/OpenMolcas/build/pymolcas
  |    MOLCAS_NPROCS = 1
  |    MOLCAS_SOURCE = /home/tecumseh/program/OpenMolcas/OpenMolcas
  | MOLCAS_STRUCTURE = 0
  |
   --------------------------------------------------------------------

++ ---------   Input file   ---------

>>> COPY $dir/vectors/$Project.$R.1Ag-12S.JobIph $WorkDir/JOBIPH

>>> COPY $dir/vectors/$Project.$R.3Ag-3S.JobIph $WorkDir/JOBIPH01

>>> COPY $dir/vectors/$Project.$R.5Ag-3S.JobIph $WorkDir/JOBIPH02

>>> COPY $dir/vectors/$Project.$R.1B3u-5S.JobIph $WorkDir/JOBIPH03

>>> COPY $dir/vectors/$Project.$R.3B3u-6S.JobIph $WorkDir/JOBIPH04

>>> COPY $dir/vectors/$Project.$R.5B3u-1S.JobIph $WorkDir/JOBIPH05

>>> COPY $dir/vectors/$Project.$R.1B2u-5S.JobIph $WorkDir/JOBIPH06

>>> COPY $dir/vectors/$Project.$R.3B2u-6S.JobIph $WorkDir/JOBIPH07

>>> COPY $dir/vectors/$Project.$R.5B2u-1S.JobIph $WorkDir/JOBIPH08

>>> COPY $dir/vectors/$Project.$R.1B1g-5S.JobIph $WorkDir/JOBIPH09

>>> COPY $dir/vectors/$Project.$R.3B1g-6S.JobIph $WorkDir/JOBIPH10

>>> COPY $dir/vectors/$Project.$R.5B1g-1S.JobIph $WorkDir/JOBIPH11

>>> COPY $dir/vectors/$Project.$R.1B1u-3S.JobIph $WorkDir/JOBIPH12

>>> COPY $dir/vectors/$Project.$R.3B1u-6S.JobIph $WorkDir/JOBIPH13

>>> COPY $dir/vectors/$Project.$R.1B2g-5S.JobIph $WorkDir/JOBIPH14

>>> COPY $dir/vectors/$Project.$R.3B2g-6S.JobIph $WorkDir/JOBIPH15

>>> COPY $dir/vectors/$Project.$R.5B2g-1S.JobIph $WorkDir/JOBIPH16

>>> COPY $dir/vectors/$Project.$R.1B3g-5S.JobIph $WorkDir/JOBIPH17

>>> COPY $dir/vectors/$Project.$R.3B3g-6S.JobIph $WorkDir/JOBIPH18

>>> COPY $dir/vectors/$Project.$R.5B3g-1S.JobIph $WorkDir/JOBIPH19

>>> COPY $dir/vectors/$Project.$R.1Au-5S.JobIph $WorkDir/JOBIPH20

>>> COPY $dir/vectors/$Project.$R.3Au-6S.JobIph $WorkDir/JOBIPH21

>>> COPY $dir/vectors/$Project.$R.5Au-1S.JobIph $WorkDir/JOBIPH22

&RASSI

OMEGa
NROF=23 12 3 3 5 6 1 5 6 1 5 6 1 3 6 5 6 1 5 6 1 5 6 1
1 2 3 4 5 6 7 8 9 10 11 12
1 2 3
1 2 3
1 2 3 4 5
1 2 3 4 5 6
1
1 2 3 4 5
1 2 3 4 5 6
1
1 2 3 4 5
1 2 3 4 5 6
1
1 2 3
1 2 3 4 5 6
1 2 3 4 5
1 2 3 4 5 6
1
1 2 3 4 5
1 2 3 4 5 6
1
1 2 3 4 5
1 2 3 4 5 6
1
EJOB

-- ----------------------------------

>>> COPY /home/tecumseh/project/molecule/O2/OpenMolcas/vectors/O2.0.7500.1Ag-12S.JobIph /scratch/tecumseh/WorkSpace/O2.0.7500/JOBIPH

>>> COPY /home/tecumseh/project/molecule/O2/OpenMolcas/vectors/O2.0.7500.3Ag-3S.JobIph /scratch/tecumseh/WorkSpace/O2.0.7500/JOBIPH01

>>> COPY /home/tecumseh/project/molecule/O2/OpenMolcas/vectors/O2.0.7500.5Ag-3S.JobIph /scratch/tecumseh/WorkSpace/O2.0.7500/JOBIPH02

>>> COPY /home/tecumseh/project/molecule/O2/OpenMolcas/vectors/O2.0.7500.1B3u-5S.JobIph /scratch/tecumseh/WorkSpace/O2.0.7500/JOBIPH03

>>> COPY /home/tecumseh/project/molecule/O2/OpenMolcas/vectors/O2.0.7500.3B3u-6S.JobIph /scratch/tecumseh/WorkSpace/O2.0.7500/JOBIPH04

>>> COPY /home/tecumseh/project/molecule/O2/OpenMolcas/vectors/O2.0.7500.5B3u-1S.JobIph /scratch/tecumseh/WorkSpace/O2.0.7500/JOBIPH05

>>> COPY /home/tecumseh/project/molecule/O2/OpenMolcas/vectors/O2.0.7500.1B2u-5S.JobIph /scratch/tecumseh/WorkSpace/O2.0.7500/JOBIPH06

>>> COPY /home/tecumseh/project/molecule/O2/OpenMolcas/vectors/O2.0.7500.3B2u-6S.JobIph /scratch/tecumseh/WorkSpace/O2.0.7500/JOBIPH07

>>> COPY /home/tecumseh/project/molecule/O2/OpenMolcas/vectors/O2.0.7500.5B2u-1S.JobIph /scratch/tecumseh/WorkSpace/O2.0.7500/JOBIPH08

>>> COPY /home/tecumseh/project/molecule/O2/OpenMolcas/vectors/O2.0.7500.1B1g-5S.JobIph /scratch/tecumseh/WorkSpace/O2.0.7500/JOBIPH09

>>> COPY /home/tecumseh/project/molecule/O2/OpenMolcas/vectors/O2.0.7500.3B1g-6S.JobIph /scratch/tecumseh/WorkSpace/O2.0.7500/JOBIPH10

>>> COPY /home/tecumseh/project/molecule/O2/OpenMolcas/vectors/O2.0.7500.5B1g-1S.JobIph /scratch/tecumseh/WorkSpace/O2.0.7500/JOBIPH11

>>> COPY /home/tecumseh/project/molecule/O2/OpenMolcas/vectors/O2.0.7500.1B1u-3S.JobIph /scratch/tecumseh/WorkSpace/O2.0.7500/JOBIPH12

>>> COPY /home/tecumseh/project/molecule/O2/OpenMolcas/vectors/O2.0.7500.3B1u-6S.JobIph /scratch/tecumseh/WorkSpace/O2.0.7500/JOBIPH13

>>> COPY /home/tecumseh/project/molecule/O2/OpenMolcas/vectors/O2.0.7500.1B2g-5S.JobIph /scratch/tecumseh/WorkSpace/O2.0.7500/JOBIPH14

>>> COPY /home/tecumseh/project/molecule/O2/OpenMolcas/vectors/O2.0.7500.3B2g-6S.JobIph /scratch/tecumseh/WorkSpace/O2.0.7500/JOBIPH15

>>> COPY /home/tecumseh/project/molecule/O2/OpenMolcas/vectors/O2.0.7500.5B2g-1S.JobIph /scratch/tecumseh/WorkSpace/O2.0.7500/JOBIPH16

>>> COPY /home/tecumseh/project/molecule/O2/OpenMolcas/vectors/O2.0.7500.1B3g-5S.JobIph /scratch/tecumseh/WorkSpace/O2.0.7500/JOBIPH17

>>> COPY /home/tecumseh/project/molecule/O2/OpenMolcas/vectors/O2.0.7500.3B3g-6S.JobIph /scratch/tecumseh/WorkSpace/O2.0.7500/JOBIPH18

>>> COPY /home/tecumseh/project/molecule/O2/OpenMolcas/vectors/O2.0.7500.5B3g-1S.JobIph /scratch/tecumseh/WorkSpace/O2.0.7500/JOBIPH19

>>> COPY /home/tecumseh/project/molecule/O2/OpenMolcas/vectors/O2.0.7500.1Au-5S.JobIph /scratch/tecumseh/WorkSpace/O2.0.7500/JOBIPH20

>>> COPY /home/tecumseh/project/molecule/O2/OpenMolcas/vectors/O2.0.7500.3Au-6S.JobIph /scratch/tecumseh/WorkSpace/O2.0.7500/JOBIPH21

>>> COPY /home/tecumseh/project/molecule/O2/OpenMolcas/vectors/O2.0.7500.5Au-1S.JobIph /scratch/tecumseh/WorkSpace/O2.0.7500/JOBIPH22

--- Start Module: rassi at Thu Apr 17 10:57:49 2025 ---

()()()()()()()()()()()()()()()()()()()()()()()()()()()()()()()()()()()()()()()()()()()()()()()()()()

                                               &RASSI

                                   only a single process is used
                       available to each process: 2.0 GB of memory, 1 thread?
                                            pid: 298430
()()()()()()()()()()()()()()()()()()()()()()()()()()()()()()()()()()()()()()()()()()()()()()()()()()


      ********************************************************************************
      *                                                                              *
      *                             General data section                             *
      *                                                                              *
      ********************************************************************************

   Specific data for JOBIPH file JOBIPH
   -------------------------------------

   Header from SEWARD:
                            O2, D2h symmetry, aug-cc-pVTZ                      
        Integrals generated by Gateway/Seward, Wed Apr 16 15:47:27 2025        

   CASSCF title (first line only):
       O2, 1Ag 12S                                                             

  STATE IRREP:                1
  SPIN MULTIPLICITY:          1
  ACTIVE ELECTRONS:          12
  MAX RAS1 HOLES:             0
  MAX RAS3 ELECTRONS:         0
  NR OF CONFIG:              60

   Specific data for JOBIPH file JOBIPH01
   -------------------------------------

   Header from SEWARD:
                            O2, D2h symmetry, aug-cc-pVTZ                      
        Integrals generated by Gateway/Seward, Wed Apr 16 15:47:27 2025        

   CASSCF title (first line only):
       O2, 3Ag  3S                                                             

  STATE IRREP:                1
  SPIN MULTIPLICITY:          3
  ACTIVE ELECTRONS:          12
  MAX RAS1 HOLES:             0
  MAX RAS3 ELECTRONS:         0
  NR OF CONFIG:              42

   Specific data for JOBIPH file JOBIPH02
   -------------------------------------

   Header from SEWARD:
                            O2, D2h symmetry, aug-cc-pVTZ                      
        Integrals generated by Gateway/Seward, Wed Apr 16 15:47:27 2025        

   CASSCF title (first line only):
       O2, 5Ag  3S                                                             

  STATE IRREP:                1
  SPIN MULTIPLICITY:          5
  ACTIVE ELECTRONS:          12
  MAX RAS1 HOLES:             0
  MAX RAS3 ELECTRONS:         0
  NR OF CONFIG:              10

   Specific data for JOBIPH file JOBIPH03
   -------------------------------------

   Header from SEWARD:
                            O2, D2h symmetry, aug-cc-pVTZ                      
        Integrals generated by Gateway/Seward, Thu Apr 17 10:57:39 2025        

   CASSCF title (first line only):
       O2, 1B3u 5S                                                             

  STATE IRREP:                2
  SPIN MULTIPLICITY:          1
  ACTIVE ELECTRONS:          12
  MAX RAS1 HOLES:             0
  MAX RAS3 ELECTRONS:         0
  NR OF CONFIG:              40

   Specific data for JOBIPH file JOBIPH04
   -------------------------------------

   Header from SEWARD:
                            O2, D2h symmetry, aug-cc-pVTZ                      
        Integrals generated by Gateway/Seward, Wed Apr 16 15:47:27 2025        

   CASSCF title (first line only):
       O2, 3B3u 6S                                                             

  STATE IRREP:                2
  SPIN MULTIPLICITY:          3
  ACTIVE ELECTRONS:          12
  MAX RAS1 HOLES:             0
  MAX RAS3 ELECTRONS:         0
  NR OF CONFIG:              48

   Specific data for JOBIPH file JOBIPH05
   -------------------------------------

   Header from SEWARD:
                            O2, D2h symmetry, aug-cc-pVTZ                      
        Integrals generated by Gateway/Seward, Wed Apr 16 15:47:27 2025        

   CASSCF title (first line only):
       O2, 5B3u 1S                                                             

  STATE IRREP:                2
  SPIN MULTIPLICITY:          5
  ACTIVE ELECTRONS:          12
  MAX RAS1 HOLES:             0
  MAX RAS3 ELECTRONS:         0
  NR OF CONFIG:               8

   Specific data for JOBIPH file JOBIPH06
   -------------------------------------

   Header from SEWARD:
                            O2, D2h symmetry, aug-cc-pVTZ                      
        Integrals generated by Gateway/Seward, Thu Apr 17 10:57:39 2025        

   CASSCF title (first line only):
       O2, 1B2u 5S                                                             

  STATE IRREP:                3
  SPIN MULTIPLICITY:          1
  ACTIVE ELECTRONS:          12
  MAX RAS1 HOLES:             0
  MAX RAS3 ELECTRONS:         0
  NR OF CONFIG:              40

   Specific data for JOBIPH file JOBIPH07
   -------------------------------------

   Header from SEWARD:
                            O2, D2h symmetry, aug-cc-pVTZ                      
        Integrals generated by Gateway/Seward, Wed Apr 16 15:47:27 2025        

   CASSCF title (first line only):
       O2, 3B2u 6S                                                             

  STATE IRREP:                3
  SPIN MULTIPLICITY:          3
  ACTIVE ELECTRONS:          12
  MAX RAS1 HOLES:             0
  MAX RAS3 ELECTRONS:         0
  NR OF CONFIG:              48

   Specific data for JOBIPH file JOBIPH08
   -------------------------------------

   Header from SEWARD:
                            O2, D2h symmetry, aug-cc-pVTZ                      
        Integrals generated by Gateway/Seward, Wed Apr 16 15:47:27 2025        

   CASSCF title (first line only):
       O2, 5B2u 1S                                                             

  STATE IRREP:                3
  SPIN MULTIPLICITY:          5
  ACTIVE ELECTRONS:          12
  MAX RAS1 HOLES:             0
  MAX RAS3 ELECTRONS:         0
  NR OF CONFIG:               8

   Specific data for JOBIPH file JOBIPH09
   -------------------------------------

   Header from SEWARD:
                            O2, D2h symmetry, aug-cc-pVTZ                      
        Integrals generated by Gateway/Seward, Wed Apr 16 15:47:27 2025        

   CASSCF title (first line only):
       O2, 1B1g 5S                                                             

  STATE IRREP:                4
  SPIN MULTIPLICITY:          1
  ACTIVE ELECTRONS:          12
  MAX RAS1 HOLES:             0
  MAX RAS3 ELECTRONS:         0
  NR OF CONFIG:              36

   Specific data for JOBIPH file JOBIPH10
   -------------------------------------

   Header from SEWARD:
                            O2, D2h symmetry, aug-cc-pVTZ                      
        Integrals generated by Gateway/Seward, Wed Apr 16 15:47:27 2025        

   CASSCF title (first line only):
       O2, 3B1g 6S                                                             

  STATE IRREP:                4
  SPIN MULTIPLICITY:          3
  ACTIVE ELECTRONS:          12
  MAX RAS1 HOLES:             0
  MAX RAS3 ELECTRONS:         0
  NR OF CONFIG:              48

   Specific data for JOBIPH file JOBIPH11
   -------------------------------------

   Header from SEWARD:
                            O2, D2h symmetry, aug-cc-pVTZ                      
        Integrals generated by Gateway/Seward, Wed Apr 16 15:47:27 2025        

   CASSCF title (first line only):
       O2, 5B1g 1S                                                             

  STATE IRREP:                4
  SPIN MULTIPLICITY:          5
  ACTIVE ELECTRONS:          12
  MAX RAS1 HOLES:             0
  MAX RAS3 ELECTRONS:         0
  NR OF CONFIG:              12

   Specific data for JOBIPH file JOBIPH12
   -------------------------------------

   Header from SEWARD:
                            O2, D2h symmetry, aug-cc-pVTZ                      
        Integrals generated by Gateway/Seward, Thu Apr 17 10:57:39 2025        

   CASSCF title (first line only):
       O2, 1B1u 3S                                                             

  STATE IRREP:                5
  SPIN MULTIPLICITY:          1
  ACTIVE ELECTRONS:          12
  MAX RAS1 HOLES:             0
  MAX RAS3 ELECTRONS:         0
  NR OF CONFIG:              44

   Specific data for JOBIPH file JOBIPH13
   -------------------------------------

   Header from SEWARD:
                            O2, D2h symmetry, aug-cc-pVTZ                      
        Integrals generated by Gateway/Seward, Wed Apr 16 15:47:27 2025        

   CASSCF title (first line only):
       O2, 3B1u 6S                                                             

  STATE IRREP:                5
  SPIN MULTIPLICITY:          3
  ACTIVE ELECTRONS:          12
  MAX RAS1 HOLES:             0
  MAX RAS3 ELECTRONS:         0
  NR OF CONFIG:              48

   Specific data for JOBIPH file JOBIPH14
   -------------------------------------

   Header from SEWARD:
                            O2, D2h symmetry, aug-cc-pVTZ                      
        Integrals generated by Gateway/Seward, Wed Apr 16 15:47:27 2025        

   CASSCF title (first line only):
       O2, 1B2g 5S                                                             

  STATE IRREP:                6
  SPIN MULTIPLICITY:          1
  ACTIVE ELECTRONS:          12
  MAX RAS1 HOLES:             0
  MAX RAS3 ELECTRONS:         0
  NR OF CONFIG:              40

   Specific data for JOBIPH file JOBIPH15
   -------------------------------------

   Header from SEWARD:
                            O2, D2h symmetry, aug-cc-pVTZ                      
        Integrals generated by Gateway/Seward, Wed Apr 16 15:47:27 2025        

   CASSCF title (first line only):
       O2, 3B2g 6S                                                             

  STATE IRREP:                6
  SPIN MULTIPLICITY:          3
  ACTIVE ELECTRONS:          12
  MAX RAS1 HOLES:             0
  MAX RAS3 ELECTRONS:         0
  NR OF CONFIG:              48

   Specific data for JOBIPH file JOBIPH16
   -------------------------------------

   Header from SEWARD:
                            O2, D2h symmetry, aug-cc-pVTZ                      
        Integrals generated by Gateway/Seward, Wed Apr 16 15:47:27 2025        

   CASSCF title (first line only):
       O2, 5B2g 1S                                                             

  STATE IRREP:                6
  SPIN MULTIPLICITY:          5
  ACTIVE ELECTRONS:          12
  MAX RAS1 HOLES:             0
  MAX RAS3 ELECTRONS:         0
  NR OF CONFIG:               8

   Specific data for JOBIPH file JOBIPH17
   -------------------------------------

   Header from SEWARD:
                            O2, D2h symmetry, aug-cc-pVTZ                      
        Integrals generated by Gateway/Seward, Wed Apr 16 15:47:27 2025        

   CASSCF title (first line only):
       O2, 1B3g 5S                                                             

  STATE IRREP:                7
  SPIN MULTIPLICITY:          1
  ACTIVE ELECTRONS:          12
  MAX RAS1 HOLES:             0
  MAX RAS3 ELECTRONS:         0
  NR OF CONFIG:              40

   Specific data for JOBIPH file JOBIPH18
   -------------------------------------

   Header from SEWARD:
                            O2, D2h symmetry, aug-cc-pVTZ                      
        Integrals generated by Gateway/Seward, Wed Apr 16 15:47:27 2025        

   CASSCF title (first line only):
       O2, 3B3g 6S                                                             

  STATE IRREP:                7
  SPIN MULTIPLICITY:          3
  ACTIVE ELECTRONS:          12
  MAX RAS1 HOLES:             0
  MAX RAS3 ELECTRONS:         0
  NR OF CONFIG:              48

   Specific data for JOBIPH file JOBIPH19
   -------------------------------------

   Header from SEWARD:
                            O2, D2h symmetry, aug-cc-pVTZ                      
        Integrals generated by Gateway/Seward, Wed Apr 16 15:47:27 2025        

   CASSCF title (first line only):
       O2, 5B3g 1S                                                             

  STATE IRREP:                7
  SPIN MULTIPLICITY:          5
  ACTIVE ELECTRONS:          12
  MAX RAS1 HOLES:             0
  MAX RAS3 ELECTRONS:         0
  NR OF CONFIG:               8

   Specific data for JOBIPH file JOBIPH20
   -------------------------------------

   Header from SEWARD:
                            O2, D2h symmetry, aug-cc-pVTZ                      
        Integrals generated by Gateway/Seward, Thu Apr 17 10:57:39 2025        

   CASSCF title (first line only):
       O2, 1Au 5S                                                              

  STATE IRREP:                8
  SPIN MULTIPLICITY:          1
  ACTIVE ELECTRONS:          12
  MAX RAS1 HOLES:             0
  MAX RAS3 ELECTRONS:         0
  NR OF CONFIG:              36

   Specific data for JOBIPH file JOBIPH21
   -------------------------------------

   Header from SEWARD:
                            O2, D2h symmetry, aug-cc-pVTZ                      
        Integrals generated by Gateway/Seward, Wed Apr 16 15:47:27 2025        

   CASSCF title (first line only):
       O2, 3Au 6S                                                              

  STATE IRREP:                8
  SPIN MULTIPLICITY:          3
  ACTIVE ELECTRONS:          12
  MAX RAS1 HOLES:             0
  MAX RAS3 ELECTRONS:         0
  NR OF CONFIG:              48

   Specific data for JOBIPH file JOBIPH22
   -------------------------------------

   Header from SEWARD:
                            O2, D2h symmetry, aug-cc-pVTZ                      
        Integrals generated by Gateway/Seward, Wed Apr 16 15:47:27 2025        

   CASSCF title (first line only):
       O2, 5Au 1S                                                              

  STATE IRREP:                8
  SPIN MULTIPLICITY:          5
  ACTIVE ELECTRONS:          12
  MAX RAS1 HOLES:             0
  MAX RAS3 ELECTRONS:         0
  NR OF CONFIG:              12
 ###############################################################################
 ###############################################################################
 ###                                                                         ###
 ###                                                                         ###
 ###    WARNING: EJOB used when HEFF is available, possible                  ###
 ###    extra interaction between states is ignored!                         ###
 ###                                                                         ###
 ###                                                                         ###
 ###############################################################################
 ###############################################################################

   The following data are common to all the states:
   ------------------------------------------------
   (note: frozen counts as inactive, deleted as secondary)

      Nr of irreps: 8

                 Total     No./Irrep 
      Irrep                  1   2   3   4   5   6   7   8
                            ag b3u b2u b1g b1u b2g b3g  au

      INACTIVE       2       1   0   0   0   1   0   0   0
      ACTIVE         8       2   1   1   0   2   1   1   0
      SECONDARY     82      16  10  10   5  16  10  10   5
      BASIS         92      19  11  11   5  19  11  11   5

      RAS1           0       0   0   0   0   0   0   0   0
      RAS2           8       2   1   1   0   2   1   1   0
      RAS3           0       0   0   0   0   0   0   0   0

        MATRIX ELEMENTS WILL BE COMPUTED FOR THE FOLLOWING ONE-ELECTRON OPERATORS, UNLESS ZERO BY SYMMETRY.
   (Herm=Hermitian, Anti=Antihermitian, Sing=Singlet operator, Trip=Triplet operator)
     MLTPL  0   1 (HERMSING)     MLTPL  1   1 (HERMSING)     MLTPL  1   2 (HERMSING)
     MLTPL  1   3 (HERMSING)     MLTPL  2   1 (HERMSING)     MLTPL  2   2 (HERMSING)
     MLTPL  2   3 (HERMSING)     MLTPL  2   4 (HERMSING)     MLTPL  2   5 (HERMSING)
     MLTPL  2   6 (HERMSING)     VELOCITY   1 (ANTISING)     VELOCITY   2 (ANTISING)
     VELOCITY   3 (ANTISING)     ANGMOM     1 (ANTISING)     ANGMOM     2 (ANTISING)
     ANGMOM     3 (ANTISING)     MLTPV  2   1 (ANTISING)     MLTPV  2   2 (ANTISING)
     MLTPV  2   3 (ANTISING)     MLTPV  2   4 (ANTISING)     MLTPV  2   5 (ANTISING)
     MLTPV  2   6 (ANTISING)

       EIGENSTATES OF A SPIN-FREE HAMILTONIAN WILL BE COMPUTED BASED ON:

  a Hamiltonian matrix assumed to be diagonal with energies read from the wavefunction file(s).

  Nr of states:                   99

   State:        1   2   3   4   5   6   7   8   9  10  11  12  13  14  15  16  17  18  19  20
  JobIph:        1   1   1   1   1   1   1   1   1   1   1   1   2   2   2   3   3   3   4   4
 Root nr:        1   2   3   4   5   6   7   8   9  10  11  12   1   2   3   1   2   3   1   2

   State:       21  22  23  24  25  26  27  28  29  30  31  32  33  34  35  36  37  38  39  40
  JobIph:        4   4   4   5   5   5   5   5   5   6   7   7   7   7   7   8   8   8   8   8
 Root nr:        3   4   5   1   2   3   4   5   6   1   1   2   3   4   5   1   2   3   4   5

   State:       41  42  43  44  45  46  47  48  49  50  51  52  53  54  55  56  57  58  59  60
  JobIph:        8   9  10  10  10  10  10  11  11  11  11  11  11  12  13  13  13  14  14  14
 Root nr:        6   1   1   2   3   4   5   1   2   3   4   5   6   1   1   2   3   1   2   3

   State:       61  62  63  64  65  66  67  68  69  70  71  72  73  74  75  76  77  78  79  80
  JobIph:       14  14  14  15  15  15  15  15  16  16  16  16  16  16  17  18  18  18  18  18
 Root nr:        4   5   6   1   2   3   4   5   1   2   3   4   5   6   1   1   2   3   4   5

   State:       81  82  83  84  85  86  87  88  89  90  91  92  93  94  95  96  97  98  99
  JobIph:       19  19  19  19  19  19  20  21  21  21  21  21  22  22  22  22  22  22  23
 Root nr:        1   2   3   4   5   6   1   1   2   3   4   5   1   2   3   4   5   6   1

  HAMILTONIAN MATRIX FOR THE ORIGINAL STATES:

  Diagonal, with energies
   -149.68194410   -149.66974245   -149.34658455   -149.33398832   -149.26836435
   -149.24155938   -149.21090091   -149.20342566   -149.04473125   -148.99709343
   -148.95246869   -148.92957214   -149.26837592   -149.26574269   -149.07929282
   -149.36409216   -149.36165584   -149.16109825   -149.46500089   -149.31503694
   -149.21659811   -149.15892787   -149.13199813   -149.50833984   -149.38262094
   -149.28462657   -149.24559296   -149.24027900   -149.21084140   -149.33425256
   -149.46500089   -149.31503694   -149.21659811   -149.15892787   -149.13199813
   -149.50833984   -149.38262094   -149.28462657   -149.24559296   -149.24027900
   -149.21084140   -149.33425256   -149.68194410   -149.34658455   -149.21090091
   -148.99709343   -148.95509599   -149.70613520   -149.40778394   -149.31439270
   -149.26837592   -149.07929282   -149.03971639   -149.36409216   -149.41825925
   -149.37045160   -149.03139783   -149.60895219   -149.60637513   -149.36581756
   -149.35639778   -149.20422425   -149.13088423   -149.45039318   -149.38926306
   -149.30315421   -149.27268103   -149.19529838   -149.50881102   -149.41633129
   -149.37794995   -149.37023120   -149.33626860   -149.24998702   -149.47679371
   -149.45039318   -149.38926306   -149.30315421   -149.27268103   -149.19529838
   -149.50881102   -149.41633129   -149.37794995   -149.37023120   -149.33626860
   -149.24998702   -149.47679371   -149.61712340   -149.41825925   -149.27965987
   -149.06007946   -149.03139783   -149.60895219   -149.50388338   -149.36581756
   -149.33360742   -149.13088423   -149.09547417   -149.43536195

      OVERLAP MATRIX FOR THE ORIGINAL STATES:

  Diagonal, with elements
      1.00000000      1.00000000      1.00000000      1.00000000      1.00000000
      1.00000000      1.00000000      1.00000000      1.00000000      1.00000000
      1.00000000      1.00000000      1.00000000      1.00000000      1.00000000
      1.00000000      1.00000000      1.00000000      1.00000000      1.00000000
      1.00000000      1.00000000      1.00000000      1.00000000      1.00000000
      1.00000000      1.00000000      1.00000000      1.00000000      1.00000000
      1.00000000      1.00000000      1.00000000      1.00000000      1.00000000
      1.00000000      1.00000000      1.00000000      1.00000000      1.00000000
      1.00000000      1.00000000      1.00000000      1.00000000      1.00000000
      1.00000000      1.00000000      1.00000000      1.00000000      1.00000000
      1.00000000      1.00000000      1.00000000      1.00000000      1.00000000
      1.00000000      1.00000000      1.00000000      1.00000000      1.00000000
      1.00000000      1.00000000      1.00000000      1.00000000      1.00000000
      1.00000000      1.00000000      1.00000000      1.00000000      1.00000000
      1.00000000      1.00000000      1.00000000      1.00000000      1.00000000
      1.00000000      1.00000000      1.00000000      1.00000000      1.00000000
      1.00000000      1.00000000      1.00000000      1.00000000      1.00000000
      1.00000000      1.00000000      1.00000000      1.00000000      1.00000000
      1.00000000      1.00000000      1.00000000      1.00000000      1.00000000
      1.00000000      1.00000000      1.00000000      1.00000000

::    RASSI State    1     Total energy:    -149.68194410240082
::    RASSI State    2     Total energy:    -149.66974244718691
::    RASSI State    3     Total energy:    -149.34658455186769
::    RASSI State    4     Total energy:    -149.33398831807372
::    RASSI State    5     Total energy:    -149.26836434776581
::    RASSI State    6     Total energy:    -149.24155937554497
::    RASSI State    7     Total energy:    -149.21090091034529
::    RASSI State    8     Total energy:    -149.20342566198727
::    RASSI State    9     Total energy:    -149.04473125297270
::    RASSI State   10     Total energy:    -148.99709343318258
::    RASSI State   11     Total energy:    -148.95246868524029
::    RASSI State   12     Total energy:    -148.92957214361934
::    RASSI State   13     Total energy:    -149.26837592359840
::    RASSI State   14     Total energy:    -149.26574269498835
::    RASSI State   15     Total energy:    -149.07929281526785
::    RASSI State   16     Total energy:    -149.36409216434936
::    RASSI State   17     Total energy:    -149.36165584294972
::    RASSI State   18     Total energy:    -149.16109825273944
::    RASSI State   19     Total energy:    -149.46500089302387
::    RASSI State   20     Total energy:    -149.31503693537391
::    RASSI State   21     Total energy:    -149.21659811430487
::    RASSI State   22     Total energy:    -149.15892787415149
::    RASSI State   23     Total energy:    -149.13199812720421
::    RASSI State   24     Total energy:    -149.50833983938429
::    RASSI State   25     Total energy:    -149.38262093689556
::    RASSI State   26     Total energy:    -149.28462657226282
::    RASSI State   27     Total energy:    -149.24559295517835
::    RASSI State   28     Total energy:    -149.24027899800043
::    RASSI State   29     Total energy:    -149.21084139827829
::    RASSI State   30     Total energy:    -149.33425256216313
::    RASSI State   31     Total energy:    -149.46500089302398
::    RASSI State   32     Total energy:    -149.31503693537400
::    RASSI State   33     Total energy:    -149.21659811430487
::    RASSI State   34     Total energy:    -149.15892787415152
::    RASSI State   35     Total energy:    -149.13199812720430
::    RASSI State   36     Total energy:    -149.50833983938423
::    RASSI State   37     Total energy:    -149.38262093689559
::    RASSI State   38     Total energy:    -149.28462657226279
::    RASSI State   39     Total energy:    -149.24559295517824
::    RASSI State   40     Total energy:    -149.24027899800029
::    RASSI State   41     Total energy:    -149.21084139827823
::    RASSI State   42     Total energy:    -149.33425256216316
::    RASSI State   43     Total energy:    -149.68194410240085
::    RASSI State   44     Total energy:    -149.34658455186778
::    RASSI State   45     Total energy:    -149.21090091034543
::    RASSI State   46     Total energy:    -148.99709343318253
::    RASSI State   47     Total energy:    -148.95509599399000
::    RASSI State   48     Total energy:    -149.70613520097896
::    RASSI State   49     Total energy:    -149.40778393922074
::    RASSI State   50     Total energy:    -149.31439269955482
::    RASSI State   51     Total energy:    -149.26837592359831
::    RASSI State   52     Total energy:    -149.07929281526782
::    RASSI State   53     Total energy:    -149.03971639387106
::    RASSI State   54     Total energy:    -149.36409216434927
::    RASSI State   55     Total energy:    -149.41825925392104
::    RASSI State   56     Total energy:    -149.37045159797967
::    RASSI State   57     Total energy:    -149.03139783348840
::    RASSI State   58     Total energy:    -149.60895218862518
::    RASSI State   59     Total energy:    -149.60637512803717
::    RASSI State   60     Total energy:    -149.36581756094262
::    RASSI State   61     Total energy:    -149.35639778137997
::    RASSI State   62     Total energy:    -149.20422425166041
::    RASSI State   63     Total energy:    -149.13088422861841
::    RASSI State   64     Total energy:    -149.45039318240032
::    RASSI State   65     Total energy:    -149.38926305703899
::    RASSI State   66     Total energy:    -149.30315421300935
::    RASSI State   67     Total energy:    -149.27268102589844
::    RASSI State   68     Total energy:    -149.19529838349987
::    RASSI State   69     Total energy:    -149.50881101662165
::    RASSI State   70     Total energy:    -149.41633129202009
::    RASSI State   71     Total energy:    -149.37794995067063
::    RASSI State   72     Total energy:    -149.37023120387289
::    RASSI State   73     Total energy:    -149.33626860178529
::    RASSI State   74     Total energy:    -149.24998701678308
::    RASSI State   75     Total energy:    -149.47679371132827
::    RASSI State   76     Total energy:    -149.45039318240018
::    RASSI State   77     Total energy:    -149.38926305703899
::    RASSI State   78     Total energy:    -149.30315421300929
::    RASSI State   79     Total energy:    -149.27268102589841
::    RASSI State   80     Total energy:    -149.19529838349987
::    RASSI State   81     Total energy:    -149.50881101662154
::    RASSI State   82     Total energy:    -149.41633129202009
::    RASSI State   83     Total energy:    -149.37794995067054
::    RASSI State   84     Total energy:    -149.37023120387278
::    RASSI State   85     Total energy:    -149.33626860178521
::    RASSI State   86     Total energy:    -149.24998701678311
::    RASSI State   87     Total energy:    -149.47679371132824
::    RASSI State   88     Total energy:    -149.61712340092305
::    RASSI State   89     Total energy:    -149.41825925392098
::    RASSI State   90     Total energy:    -149.27965987345476
::    RASSI State   91     Total energy:    -149.06007945647394
::    RASSI State   92     Total energy:    -149.03139783348840
::    RASSI State   93     Total energy:    -149.60895218862501
::    RASSI State   94     Total energy:    -149.50388337952373
::    RASSI State   95     Total energy:    -149.36581756094256
::    RASSI State   96     Total energy:    -149.33360742137660
::    RASSI State   97     Total energy:    -149.13088422861841
::    RASSI State   98     Total energy:    -149.09547417250141
::    RASSI State   99     Total energy:    -149.43536195486206



      ****************************************************************************************************
      *                                                                                                  *
      *                                         Spin-free section                                        *
      *                                                                                                  *
      *                 Note: index according to input order, order according to energy.                 *
      *                                                                                                  *
      ****************************************************************************************************



  SPIN-FREE ENERGIES:
  (Shifted by EMIN (a.u.) =       -149.7061352010)

 SF State       Relative EMIN(au)   Rel lowest level(eV)    D:o, cm**(-1)      L_eff   Abs_M

    48             0.0000000000        0.0000000000              0.0000         1.7     0.0
    43             0.0241910986        0.6582733271           5309.3324         2.4     2.0
     1             0.0241910986        0.6582733271           5309.3324         2.4     2.0
     2             0.0363927538        0.9902972800           7987.2862         1.6     0.0
    88             0.0890118001        2.4221344718          19535.8320         1.1     0.0
    58             0.0971830124        2.6444844857          21329.2058         2.1     2.0
    93             0.0971830124        2.6444844857          21329.2058         2.1     2.0
    59             0.0997600729        2.7146098767          21894.8052         1.1     0.0
    69             0.1973241844        5.3694645962          43307.6526         1.6     1.0
    81             0.1973241844        5.3694645962          43307.6526         1.6     1.0
    24             0.1977953616        5.3822859820          43411.0641         1.9     1.0
    36             0.1977953616        5.3822859820          43411.0641         1.9     1.0
    94             0.2022518215        5.5035524326          44389.1440         1.6     0.0
    75             0.2293414897        6.2406998571          50334.6389         1.6     1.0
    87             0.2293414897        6.2406998571          50334.6389         1.6     1.0
    31             0.2411343080        6.5615987909          52922.8633         1.4     1.0
    19             0.2411343080        6.5615987909          52922.8633         1.4     1.0
    64             0.2557420186        6.9590948469          56128.8853         2.8     1.0
    76             0.2557420186        6.9590948469          56128.8853         2.8     1.0
    99             0.2707732461        7.3681153852          59427.8584         0.5     0.0
    55             0.2878759471        7.8335035863          63181.4674         2.3     2.0
    89             0.2878759471        7.8335035863          63181.4674         2.3     2.0
    70             0.2898039090        7.8859661023          63604.6061         1.2     1.0
    82             0.2898039090        7.8859661023          63604.6061         1.2     1.0
    49             0.2983512618        8.1185514207          65480.5332         1.1     0.0
    65             0.3168721439        8.6225302993          69545.3970         1.6     1.0
    77             0.3168721439        8.6225302993          69545.3970         1.6     1.0
    37             0.3235142641        8.8032715961          71003.1739         1.8     1.0
    25             0.3235142641        8.8032715961          71003.1739         1.8     1.0
    71             0.3281852503        8.9303756064          72028.3368         1.8     1.0
    83             0.3281852503        8.9303756064          72028.3368         1.8     1.0
    56             0.3356836030        9.1344161777          73674.0350         1.2     0.0
    72             0.3359039971        9.1404134068          73722.4059         2.8     3.0
    84             0.3359039971        9.1404134068          73722.4059         2.8     3.0
    60             0.3403176400        9.2605147493          74691.0886         2.1     2.0
    95             0.3403176400        9.2605147494          74691.0886         2.1     2.0
    16             0.3420430366        9.3074651825          75069.7694         1.9     2.0
    54             0.3420430366        9.3074651825          75069.7694         1.9     2.0
    17             0.3444793580        9.3737608651          75604.4801         0.8     0.0
    61             0.3497374196        9.5168400094          76758.4912         1.3     0.0
    44             0.3595506491        9.7838715880          78912.2462         2.2     2.0
     3             0.3595506491        9.7838715880          78912.2462         2.2     2.0
    73             0.3698665992       10.0645828901          81176.3355         1.3     1.0
    85             0.3698665992       10.0645828901          81176.3355         1.3     1.0
    42             0.3718826388       10.1194421230          81618.8051         0.8     1.0
    30             0.3718826388       10.1194421230          81618.8051         0.8     1.0
     4             0.3721468829       10.1266325710          81676.7999         2.1     0.0
    96             0.3725277796       10.1369972981          81760.3971         1.4     0.0
    32             0.3910982656       10.6423259655          85836.1477         1.6     1.0
    20             0.3910982656       10.6423259655          85836.1477         1.6     1.0
    50             0.3917425014       10.6598565152          85977.5411         1.1     0.0
    66             0.4029809880       10.9656713134          88444.1038         3.3     3.0
    78             0.4029809880       10.9656713134          88444.1038         3.3     3.0
    26             0.4215086287       11.4698341020          92510.4509         1.5     1.0
    38             0.4215086287       11.4698341020          92510.4509         1.5     1.0
    90             0.4264753275       11.6049848616          93600.5153         2.0     0.0
    67             0.4334541751       11.7948889780          95132.1953         2.0     1.0
    79             0.4334541751       11.7948889781          95132.1953         2.0     1.0
    13             0.4377592774       11.9120367796          96077.0560         2.4     2.0
    51             0.4377592774       11.9120367796          96077.0560         2.4     2.0
     5             0.4377708532       11.9123517740          96079.5966         1.3     0.0
    14             0.4403925060       11.9836905803          96654.9829         1.6     0.0
    86             0.4561481842       12.4124244256         100112.9546         0.8     1.0
    74             0.4561481842       12.4124244256         100112.9546         0.8     1.0
    27             0.4605422458       12.5319929331         101077.3396         2.8     3.0
    39             0.4605422458       12.5319929331         101077.3396         2.8     3.0
     6             0.4645758254       12.6417522264         101962.6080         1.2     0.0
    28             0.4658562030       12.6765930743         102243.6184         1.2     1.0
    40             0.4658562030       12.6765930743         102243.6184         1.2     1.0
    33             0.4895370867       13.3209827472         107440.9716         1.6     1.0
    21             0.4895370867       13.3209827472         107440.9716         1.6     1.0
    45             0.4952342906       13.4760115647         108691.3634         2.5     2.0
     7             0.4952342906       13.4760115647         108691.3634         2.5     2.0
    29             0.4952938027       13.4776309705         108704.4248         1.0     1.0
    41             0.4952938027       13.4776309705         108704.4248         1.0     1.0
    62             0.5019109493       13.6576927030         110156.7206         1.0     0.0
     8             0.5027095390       13.6794234350         110331.9908         1.8     0.0
    80             0.5108368175       13.9005779491         112115.7222         1.4     1.0
    68             0.5108368175       13.9005779491         112115.7222         1.4     1.0
    18             0.5450369482       14.8312109169         119621.7833         0.9     0.0
    34             0.5472073268       14.8902699269         120098.1263         2.7     3.0
    22             0.5472073268       14.8902699269         120098.1263         2.7     3.0
    35             0.5741370738       15.6230656726         126008.5226         1.0     1.0
    23             0.5741370738       15.6230656726         126008.5226         1.0     1.0
    63             0.5752509724       15.6533763973         126252.9951         2.0     2.0
    97             0.5752509724       15.6533763973         126252.9951         2.0     2.0
    98             0.6106610285       16.6169331113         134024.6041         0.8     0.0
    15             0.6268423857       17.0572502729         137576.0015         1.9     2.0
    52             0.6268423857       17.0572502729         137576.0015         1.9     2.0
    91             0.6460557445       17.5800724002         141792.8464         1.0     0.0
     9             0.6614039480       17.9977182938         145161.3877         1.0     0.0
    53             0.6664188071       18.1341795618         146262.0220         0.7     0.0
    92             0.6747373675       18.3605391214         148087.7350         1.8     2.0
    57             0.6747373675       18.3605391214         148087.7350         1.8     2.0
    10             0.7090417678       19.2940094080         155616.6806         3.7     4.0
    46             0.7090417678       19.2940094080         155616.6806         3.7     4.0
    47             0.7510392070       20.4368179473         164834.0531         0.4     0.0
    11             0.7536665157       20.5083106604         165410.6807         0.7     0.0
    12             0.7765630574       21.1313572982         170435.8907         0.6     0.0

++ Dipole transition strengths (spin-free states):
   -----------------------------------------------
     for osc. strength at least  1.00000000E-05

      From   To        Osc. strength     Einstein coefficients Ax, Ay, Az (sec-1)    Total A (sec-1)
     -----------------------------------------------------------------------------------------------
        48   24       2.29049516E-04  0.00000000E+00  2.87920420E+05  0.00000000E+00  2.87920420E+05
        48   36       2.29049516E-04  2.87920420E+05  0.00000000E+00  0.00000000E+00  2.87920420E+05
        48   94       3.00542832E-02  0.00000000E+00  0.00000000E+00  3.95004588E+07  3.95004588E+07
        48   37       6.25741847E-04  2.10422875E+06  0.00000000E+00  0.00000000E+00  2.10422875E+06
        48   25       6.25741847E-04  0.00000000E+00  2.10422875E+06  0.00000000E+00  2.10422875E+06
        48   96       6.40950684E-04  0.00000000E+00  0.00000000E+00  2.85793815E+06  2.85793815E+06
        48   26       1.78719287E-04  0.00000000E+00  1.02022332E+06  0.00000000E+00  1.02022332E+06
        48   38       1.78719287E-04  1.02022332E+06  0.00000000E+00  0.00000000E+00  1.02022332E+06
        48   28       9.89987377E-05  0.00000000E+00  6.90310223E+05  0.00000000E+00  6.90310223E+05
        48   40       9.89987377E-05  6.90310223E+05  0.00000000E+00  0.00000000E+00  6.90310223E+05
        48   29       4.92076923E-03  0.00000000E+00  3.87855245E+07  0.00000000E+00  3.87855245E+07
        48   41       4.92076923E-03  3.87855245E+07  0.00000000E+00  0.00000000E+00  3.87855245E+07
        48   98       7.01793648E-04  0.00000000E+00  0.00000000E+00  8.40854254E+06  8.40854254E+06
        43   31       6.59657618E-04  9.97519942E+05  0.00000000E+00  0.00000000E+00  9.97519942E+05
        43   19       6.59657618E-04  0.00000000E+00  9.97519942E+05  0.00000000E+00  9.97519942E+05
        43   89       1.88367602E-02  0.00000000E+00  0.00000000E+00  4.20811349E+07  4.20811349E+07
        43   32       5.15654493E-03  2.23039652E+07  0.00000000E+00  0.00000000E+00  2.23039652E+07
        43   20       5.15654493E-03  0.00000000E+00  2.23039652E+07  0.00000000E+00  2.23039652E+07
        43   33       4.21131059E-04  2.93008422E+06  0.00000000E+00  0.00000000E+00  2.93008422E+06
        43   21       4.21131059E-04  0.00000000E+00  2.93008422E+06  0.00000000E+00  2.93008422E+06
        43   34       5.57543547E-05  4.90026996E+05  0.00000000E+00  0.00000000E+00  4.90026996E+05
        43   22       5.57543547E-05  0.00000000E+00  4.90026996E+05  0.00000000E+00  4.90026996E+05
        43   35       1.03208419E-02  1.00291947E+08  0.00000000E+00  0.00000000E+00  1.00291947E+08
        43   23       1.03208419E-02  0.00000000E+00  1.00291947E+08  0.00000000E+00  1.00291947E+08
        43   92       5.96058430E-03  0.00000000E+00  0.00000000E+00  8.10505746E+07  8.10505746E+07
         1   31       6.59657618E-04  0.00000000E+00  9.97519942E+05  0.00000000E+00  9.97519942E+05
         1   19       6.59657618E-04  9.97519942E+05  0.00000000E+00  0.00000000E+00  9.97519942E+05
         1   55       1.88367602E-02  0.00000000E+00  0.00000000E+00  4.20811349E+07  4.20811349E+07
         1   32       5.15654493E-03  0.00000000E+00  2.23039652E+07  0.00000000E+00  2.23039652E+07
         1   20       5.15654493E-03  2.23039652E+07  0.00000000E+00  0.00000000E+00  2.23039652E+07
         1   33       4.21131059E-04  0.00000000E+00  2.93008422E+06  0.00000000E+00  2.93008422E+06
         1   21       4.21131059E-04  2.93008422E+06  0.00000000E+00  0.00000000E+00  2.93008422E+06
         1   34       5.57543547E-05  0.00000000E+00  4.90026995E+05  0.00000000E+00  4.90026995E+05
         1   22       5.57543547E-05  4.90026996E+05  0.00000000E+00  0.00000000E+00  4.90026996E+05
         1   35       1.03208419E-02  0.00000000E+00  1.00291947E+08  0.00000000E+00  1.00291947E+08
         1   23       1.03208419E-02  1.00291947E+08  0.00000000E+00  0.00000000E+00  1.00291947E+08
         1   57       5.96058430E-03  0.00000000E+00  0.00000000E+00  8.10505746E+07  8.10505746E+07
         2   31       1.39699118E-03  0.00000000E+00  1.88155335E+06  0.00000000E+00  1.88155335E+06
         2   19       1.39699118E-03  1.88155335E+06  0.00000000E+00  0.00000000E+00  1.88155335E+06
         2   56       1.45192037E-02  0.00000000E+00  0.00000000E+00  4.17869388E+07  4.17869388E+07
         2   32       5.97003345E-03  0.00000000E+00  2.41336784E+07  0.00000000E+00  2.41336784E+07
         2   20       5.97003345E-03  2.41336784E+07  0.00000000E+00  0.00000000E+00  2.41336784E+07
         2   33       3.06160550E-04  0.00000000E+00  2.01991557E+06  0.00000000E+00  2.01991557E+06
         2   21       3.06160550E-04  2.01991557E+06  0.00000000E+00  0.00000000E+00  2.01991557E+06
         2   35       8.68546198E-03  0.00000000E+00  8.06966433E+07  0.00000000E+00  8.06966433E+07
         2   23       8.68546198E-03  8.06966433E+07  0.00000000E+00  0.00000000E+00  8.06966433E+07
        88   64       2.46913407E-03  0.00000000E+00  2.20538387E+06  0.00000000E+00  2.20538387E+06
        88   76       2.46913407E-03  2.20538387E+06  0.00000000E+00  0.00000000E+00  2.20538387E+06
        88   65       6.10993212E-04  0.00000000E+00  1.01925949E+06  0.00000000E+00  1.01925949E+06
        88   77       6.10993212E-04  1.01925949E+06  0.00000000E+00  0.00000000E+00  1.01925949E+06
        88   67       5.24539175E-04  0.00000000E+00  1.99950255E+06  0.00000000E+00  1.99950255E+06
        88   79       5.24539175E-04  1.99950255E+06  0.00000000E+00  0.00000000E+00  1.99950255E+06
        88   80       6.58008851E-04  3.76190033E+06  0.00000000E+00  0.00000000E+00  3.76190033E+06
        88   68       6.58008851E-04  0.00000000E+00  3.76190033E+06  0.00000000E+00  3.76190033E+06
        88   47       1.77288833E-01  0.00000000E+00  0.00000000E+00  2.49657261E+09  2.49657261E+09
        58   69       1.00243728E-03  3.22993240E+05  0.00000000E+00  0.00000000E+00  3.22993240E+05
        58   81       1.00243728E-03  0.00000000E+00  3.22993240E+05  0.00000000E+00  3.22993240E+05
        58   70       1.46626649E-04  1.74795638E+05  0.00000000E+00  0.00000000E+00  1.74795638E+05
        58   82       1.46626649E-04  0.00000000E+00  1.74795638E+05  0.00000000E+00  1.74795638E+05
        58   71       5.29534803E-04  9.07899478E+05  0.00000000E+00  0.00000000E+00  9.07899478E+05
        58   83       5.29534803E-04  0.00000000E+00  9.07899478E+05  0.00000000E+00  9.07899478E+05
        58   72       2.34550708E-04  4.29466038E+05  0.00000000E+00  0.00000000E+00  4.29466038E+05
        58   84       2.34550708E-04  0.00000000E+00  4.29466038E+05  0.00000000E+00  4.29466038E+05
        58   73       2.48499805E-04  5.93683434E+05  0.00000000E+00  0.00000000E+00  5.93683434E+05
        58   85       2.48499805E-04  0.00000000E+00  5.93683434E+05  0.00000000E+00  5.93683434E+05
        58   13       9.24091868E-04  0.00000000E+00  0.00000000E+00  3.44393375E+06  3.44393375E+06
        58   86       2.10985070E-04  0.00000000E+00  8.73508698E+05  0.00000000E+00  8.73508698E+05
        58   74       2.10985070E-04  8.73508698E+05  0.00000000E+00  0.00000000E+00  8.73508698E+05
        93   69       1.00243728E-03  0.00000000E+00  3.22993240E+05  0.00000000E+00  3.22993240E+05
        93   81       1.00243728E-03  3.22993240E+05  0.00000000E+00  0.00000000E+00  3.22993240E+05
        93   70       1.46626649E-04  0.00000000E+00  1.74795638E+05  0.00000000E+00  1.74795638E+05
        93   82       1.46626649E-04  1.74795638E+05  0.00000000E+00  0.00000000E+00  1.74795638E+05
        93   71       5.29534803E-04  0.00000000E+00  9.07899478E+05  0.00000000E+00  9.07899478E+05
        93   83       5.29534803E-04  9.07899478E+05  0.00000000E+00  0.00000000E+00  9.07899478E+05
        93   72       2.34550708E-04  0.00000000E+00  4.29466038E+05  0.00000000E+00  4.29466038E+05
        93   84       2.34550708E-04  4.29466038E+05  0.00000000E+00  0.00000000E+00  4.29466038E+05
        93   73       2.48499805E-04  0.00000000E+00  5.93683434E+05  0.00000000E+00  5.93683434E+05
        93   85       2.48499805E-04  5.93683434E+05  0.00000000E+00  0.00000000E+00  5.93683434E+05
        93   51       9.24091868E-04  0.00000000E+00  0.00000000E+00  3.44393375E+06  3.44393375E+06
        93   86       2.10985070E-04  8.73508698E+05  0.00000000E+00  0.00000000E+00  8.73508698E+05
        93   74       2.10985070E-04  0.00000000E+00  8.73508698E+05  0.00000000E+00  8.73508698E+05
        59   69       1.00197832E-03  3.06442782E+05  0.00000000E+00  0.00000000E+00  3.06442782E+05
        59   81       1.00197832E-03  0.00000000E+00  3.06442782E+05  0.00000000E+00  3.06442782E+05
        59   70       6.10589384E-04  7.08545441E+05  0.00000000E+00  0.00000000E+00  7.08545441E+05
        59   82       6.10589384E-04  0.00000000E+00  7.08545441E+05  0.00000000E+00  7.08545441E+05
        59   71       5.90213665E-04  9.89482425E+05  0.00000000E+00  0.00000000E+00  9.89482425E+05
        59   83       5.90213665E-04  0.00000000E+00  9.89482425E+05  0.00000000E+00  9.89482425E+05
        59   14       9.08765607E-04  0.00000000E+00  0.00000000E+00  3.38793258E+06  3.38793258E+06
        59   86       4.46703976E-04  0.00000000E+00  1.82295991E+06  0.00000000E+00  1.82295991E+06
        59   74       4.46703976E-04  1.82295991E+06  0.00000000E+00  0.00000000E+00  1.82295991E+06
        69   94       1.03770482E-05  0.00000000E+00  8.09584434E+00  0.00000000E+00  8.09584434E+00
        69   25       1.61698478E-02  0.00000000E+00  0.00000000E+00  8.27308038E+06  8.27308038E+06
        69   60       1.26725928E-04  8.32546860E+04  0.00000000E+00  0.00000000E+00  8.32546860E+04
        69   95       1.26725928E-04  0.00000000E+00  8.32546860E+04  0.00000000E+00  8.32546860E+04
        69   61       5.70653817E-05  4.25920921E+04  0.00000000E+00  0.00000000E+00  4.25920921E+04
        69   96       8.90016946E-04  0.00000000E+00  8.77799211E+05  0.00000000E+00  8.77799211E+05
        69   26       1.02084336E-04  0.00000000E+00  0.00000000E+00  1.64846959E+05  1.64846959E+05
        69   29       3.40553388E-04  0.00000000E+00  0.00000000E+00  9.71493853E+05  9.71493853E+05
        81   94       1.03770482E-05  8.09584434E+00  0.00000000E+00  0.00000000E+00  8.09584434E+00
        81   37       1.61698478E-02  0.00000000E+00  0.00000000E+00  8.27308038E+06  8.27308038E+06
        81   60       1.26725928E-04  0.00000000E+00  8.32546860E+04  0.00000000E+00  8.32546860E+04
        81   95       1.26725928E-04  8.32546860E+04  0.00000000E+00  0.00000000E+00  8.32546860E+04
        81   61       5.70653817E-05  0.00000000E+00  4.25920921E+04  0.00000000E+00  4.25920921E+04
        81   96       8.90016946E-04  8.77799211E+05  0.00000000E+00  0.00000000E+00  8.77799211E+05
        81   38       1.02084336E-04  0.00000000E+00  0.00000000E+00  1.64846959E+05  1.64846959E+05
        81   41       3.40553388E-04  0.00000000E+00  0.00000000E+00  9.71493853E+05  9.71493853E+05
        24   70       3.83295979E-03  0.00000000E+00  0.00000000E+00  1.04256105E+06  1.04256105E+06
        24   71       8.73837021E-05  0.00000000E+00  0.00000000E+00  4.77341455E+04  4.77341455E+04
        24   73       2.54732044E-03  0.00000000E+00  0.00000000E+00  2.42332146E+06  2.42332146E+06
        24   50       4.25678812E-04  0.00000000E+00  5.14469551E+05  0.00000000E+00  5.14469551E+05
        24   13       1.60748450E-04  2.97405885E+05  0.00000000E+00  0.00000000E+00  2.97405885E+05
        24   51       1.60748450E-04  0.00000000E+00  2.97405885E+05  0.00000000E+00  2.97405885E+05
        24   14       2.80476510E-05  5.30369752E+04  0.00000000E+00  0.00000000E+00  5.30369752E+04
        24   74       4.22884058E-02  0.00000000E+00  0.00000000E+00  9.06898363E+07  9.06898363E+07
        24   15       1.72887134E-05  1.02254716E+05  0.00000000E+00  0.00000000E+00  1.02254716E+05
        24   52       1.72887134E-05  0.00000000E+00  1.02254716E+05  0.00000000E+00  1.02254716E+05
        24   53       2.07110881E-03  0.00000000E+00  1.46137551E+07  0.00000000E+00  1.46137551E+07
        36   82       3.83295979E-03  0.00000000E+00  0.00000000E+00  1.04256105E+06  1.04256105E+06
        36   83       8.73837021E-05  0.00000000E+00  0.00000000E+00  4.77341455E+04  4.77341455E+04
        36   85       2.54732044E-03  0.00000000E+00  0.00000000E+00  2.42332146E+06  2.42332146E+06
        36   50       4.25678812E-04  5.14469551E+05  0.00000000E+00  0.00000000E+00  5.14469551E+05
        36   13       1.60748450E-04  0.00000000E+00  2.97405885E+05  0.00000000E+00  2.97405885E+05
        36   51       1.60748450E-04  2.97405885E+05  0.00000000E+00  0.00000000E+00  2.97405885E+05
        36   14       2.80476510E-05  0.00000000E+00  5.30369752E+04  0.00000000E+00  5.30369752E+04
        36   86       4.22884058E-02  0.00000000E+00  0.00000000E+00  9.06898363E+07  9.06898363E+07
        36   15       1.72887134E-05  0.00000000E+00  1.02254716E+05  0.00000000E+00  1.02254716E+05
        36   52       1.72887134E-05  1.02254716E+05  0.00000000E+00  0.00000000E+00  1.02254716E+05
        36   53       2.07110881E-03  1.46137551E+07  0.00000000E+00  0.00000000E+00  1.46137551E+07
        94   49       4.32528404E-02  0.00000000E+00  0.00000000E+00  1.28341536E+07  1.28341536E+07
        94   71       1.20396122E-05  0.00000000E+00  6.13487105E+03  0.00000000E+00  6.13487105E+03
        94   83       1.20396122E-05  6.13487105E+03  0.00000000E+00  0.00000000E+00  6.13487105E+03
        94   73       7.06316134E-05  0.00000000E+00  6.37579905E+04  0.00000000E+00  6.37579905E+04
        94   85       7.06316134E-05  6.37579905E+04  0.00000000E+00  0.00000000E+00  6.37579905E+04
        94   50       3.30397047E-03  0.00000000E+00  0.00000000E+00  3.81173543E+06  3.81173543E+06
        94   86       1.33060913E-05  2.75596908E+04  0.00000000E+00  0.00000000E+00  2.75596908E+04
        94   74       1.33060913E-05  0.00000000E+00  2.75596908E+04  0.00000000E+00  2.75596908E+04
        94   53       2.05718607E-03  0.00000000E+00  0.00000000E+00  1.42407529E+07  1.42407529E+07
        75   99       4.29011449E-04  0.00000000E+00  2.36617279E+04  0.00000000E+00  2.36617279E+04
        75   30       3.66236471E-02  0.00000000E+00  0.00000000E+00  2.39085361E+07  2.39085361E+07
        87   99       4.29011449E-04  2.36617279E+04  0.00000000E+00  0.00000000E+00  2.36617279E+04
        87   42       3.66236471E-02  0.00000000E+00  0.00000000E+00  2.39085361E+07  2.39085361E+07
        31   77       3.87020625E-03  0.00000000E+00  0.00000000E+00  7.13297624E+05  7.13297624E+05
        31   79       1.95285793E-03  0.00000000E+00  0.00000000E+00  2.32075787E+06  2.32075787E+06
        31    6       1.42492832E-03  0.00000000E+00  2.28576535E+06  0.00000000E+00  2.28576535E+06
        31   45       5.16588717E-04  1.07167986E+06  0.00000000E+00  0.00000000E+00  1.07167986E+06
        31    7       5.16588717E-04  0.00000000E+00  1.07167986E+06  0.00000000E+00  1.07167986E+06
        31    8       2.73424148E-04  0.00000000E+00  6.01092052E+05  0.00000000E+00  6.01092052E+05
        31   80       2.59036840E-02  0.00000000E+00  0.00000000E+00  6.05399964E+07  6.05399964E+07
        31   47       6.77152468E-02  5.65686374E+08  0.00000000E+00  0.00000000E+00  5.65686374E+08
        31   11       1.26882618E-03  0.00000000E+00  1.07091583E+07  0.00000000E+00  1.07091583E+07
        31   12       2.48360940E-03  0.00000000E+00  2.28769199E+07  0.00000000E+00  2.28769199E+07
        19   65       3.87020625E-03  0.00000000E+00  0.00000000E+00  7.13297624E+05  7.13297624E+05
        19   67       1.95285793E-03  0.00000000E+00  0.00000000E+00  2.32075787E+06  2.32075787E+06
        19    6       1.42492832E-03  2.28576535E+06  0.00000000E+00  0.00000000E+00  2.28576535E+06
        19   45       5.16588717E-04  0.00000000E+00  1.07167986E+06  0.00000000E+00  1.07167986E+06
        19    7       5.16588717E-04  1.07167986E+06  0.00000000E+00  0.00000000E+00  1.07167986E+06
        19    8       2.73424148E-04  6.01092052E+05  0.00000000E+00  0.00000000E+00  6.01092052E+05
        19   68       2.59036840E-02  0.00000000E+00  0.00000000E+00  6.05399964E+07  6.05399964E+07
        19   47       6.77152468E-02  0.00000000E+00  5.65686374E+08  0.00000000E+00  5.65686374E+08
        19   11       1.26882618E-03  1.07091583E+07  0.00000000E+00  0.00000000E+00  1.07091583E+07
        19   12       2.48360940E-03  2.28769199E+07  0.00000000E+00  0.00000000E+00  2.28769199E+07
        64   55       2.03122535E-05  6.73901831E+02  0.00000000E+00  0.00000000E+00  6.73901831E+02
        64   89       2.03122535E-05  0.00000000E+00  6.73901831E+02  0.00000000E+00  6.73901831E+02
        64   20       2.16192564E-02  0.00000000E+00  0.00000000E+00  1.27264784E+07  1.27264784E+07
        64   90       1.12218703E-03  0.00000000E+00  1.05102402E+06  0.00000000E+00  1.05102402E+06
        64   21       2.31183811E-04  0.00000000E+00  0.00000000E+00  4.06012115E+05  4.06012115E+05
        64   23       5.50171161E-04  0.00000000E+00  0.00000000E+00  1.79201373E+06  1.79201373E+06
        64   91       1.52541263E-05  0.00000000E+00  7.46665128E+04  0.00000000E+00  7.46665128E+04
        76   55       2.03122535E-05  0.00000000E+00  6.73901831E+02  0.00000000E+00  6.73901831E+02
        76   89       2.03122535E-05  6.73901831E+02  0.00000000E+00  0.00000000E+00  6.73901831E+02
        76   32       2.16192564E-02  0.00000000E+00  0.00000000E+00  1.27264784E+07  1.27264784E+07
        76   90       1.12218703E-03  1.05102402E+06  0.00000000E+00  0.00000000E+00  1.05102402E+06
        76   33       2.31183811E-04  0.00000000E+00  0.00000000E+00  4.06012115E+05  4.06012115E+05
        76   35       5.50171161E-04  0.00000000E+00  0.00000000E+00  1.79201373E+06  1.79201373E+06
        76   91       1.52541263E-05  7.46665128E+04  0.00000000E+00  0.00000000E+00  7.46665128E+04
        55    3       3.59594453E-02  0.00000000E+00  0.00000000E+00  5.93547745E+06  5.93547745E+06
        55   66       1.39887586E-05  5.95495858E+03  0.00000000E+00  0.00000000E+00  5.95495858E+03
        55   78       1.39887586E-05  0.00000000E+00  5.95495858E+03  0.00000000E+00  5.95495858E+03
        55   67       2.58066182E-05  1.75725520E+04  0.00000000E+00  0.00000000E+00  1.75725520E+04
        55   79       2.58066182E-05  0.00000000E+00  1.75725520E+04  0.00000000E+00  1.75725520E+04
        55    7       4.45771973E-03  0.00000000E+00  0.00000000E+00  6.15838269E+06  6.15838269E+06
        55   80       1.98357310E-04  0.00000000E+00  3.16822776E+05  0.00000000E+00  3.16822776E+05
        55   68       1.98357310E-04  3.16822776E+05  0.00000000E+00  0.00000000E+00  3.16822776E+05
        55   11       8.50996219E-04  0.00000000E+00  0.00000000E+00  5.93225614E+06  5.93225614E+06
        89   44       3.59594453E-02  0.00000000E+00  0.00000000E+00  5.93547745E+06  5.93547745E+06
        89   66       1.39887586E-05  0.00000000E+00  5.95495858E+03  0.00000000E+00  5.95495858E+03
        89   78       1.39887586E-05  5.95495858E+03  0.00000000E+00  0.00000000E+00  5.95495858E+03
        89   67       2.58066182E-05  0.00000000E+00  1.75725520E+04  0.00000000E+00  1.75725520E+04
        89   79       2.58066182E-05  1.75725520E+04  0.00000000E+00  0.00000000E+00  1.75725520E+04
        89   45       4.45771973E-03  0.00000000E+00  0.00000000E+00  6.15838269E+06  6.15838269E+06
        89   80       1.98357310E-04  3.16822776E+05  0.00000000E+00  0.00000000E+00  3.16822776E+05
        89   68       1.98357310E-04  0.00000000E+00  3.16822776E+05  0.00000000E+00  3.16822776E+05
        70   25       3.79359579E-05  0.00000000E+00  0.00000000E+00  1.38512380E+03  1.38512380E+03
        70   60       1.31515024E-04  1.07821445E+04  0.00000000E+00  0.00000000E+00  1.07821445E+04
        70   95       1.31515024E-04  0.00000000E+00  1.07821445E+04  0.00000000E+00  1.07821445E+04
        70   61       5.28007792E-05  6.09383442E+03  0.00000000E+00  0.00000000E+00  6.09383442E+03
        70   96       2.02385007E-04  0.00000000E+00  4.44990677E+04  0.00000000E+00  4.44990677E+04
        70   26       1.69982384E-02  0.00000000E+00  0.00000000E+00  9.47365306E+06  9.47365306E+06
        70   28       6.46374372E-03  0.00000000E+00  0.00000000E+00  6.43692411E+06  6.43692411E+06
        70   29       4.93386952E-04  0.00000000E+00  0.00000000E+00  6.69390398E+05  6.69390398E+05
        70   62       8.90185782E-04  1.28677230E+06  0.00000000E+00  0.00000000E+00  1.28677230E+06
        70   63       5.87464587E-05  1.53795537E+05  0.00000000E+00  0.00000000E+00  1.53795537E+05
        70   97       5.87464587E-05  0.00000000E+00  1.53795537E+05  0.00000000E+00  1.53795537E+05
        70   98       2.55078004E-05  0.00000000E+00  8.43737309E+04  0.00000000E+00  8.43737309E+04
        82   37       3.79359579E-05  0.00000000E+00  0.00000000E+00  1.38512380E+03  1.38512380E+03
        82   60       1.31515024E-04  0.00000000E+00  1.07821445E+04  0.00000000E+00  1.07821445E+04
        82   95       1.31515024E-04  1.07821445E+04  0.00000000E+00  0.00000000E+00  1.07821445E+04
        82   61       5.28007792E-05  0.00000000E+00  6.09383442E+03  0.00000000E+00  6.09383442E+03
        82   96       2.02385007E-04  4.44990677E+04  0.00000000E+00  0.00000000E+00  4.44990677E+04
        82   38       1.69982384E-02  0.00000000E+00  0.00000000E+00  9.47365306E+06  9.47365306E+06
        82   40       6.46374372E-03  0.00000000E+00  0.00000000E+00  6.43692411E+06  6.43692411E+06
        82   41       4.93386952E-04  0.00000000E+00  0.00000000E+00  6.69390398E+05  6.69390398E+05
        82   62       8.90185782E-04  0.00000000E+00  1.28677230E+06  0.00000000E+00  1.28677230E+06
        82   63       5.87464587E-05  0.00000000E+00  1.53795537E+05  0.00000000E+00  1.53795537E+05
        82   97       5.87464587E-05  1.53795537E+05  0.00000000E+00  0.00000000E+00  1.53795537E+05
        82   98       2.55078004E-05  8.43737309E+04  0.00000000E+00  0.00000000E+00  8.43737309E+04
        49   37       1.51649503E-04  3.08515359E+03  0.00000000E+00  0.00000000E+00  3.08515359E+03
        49   25       1.51649503E-04  0.00000000E+00  3.08515359E+03  0.00000000E+00  3.08515359E+03
        49   26       4.51002731E-05  0.00000000E+00  2.19791476E+04  0.00000000E+00  2.19791476E+04
        49   38       4.51002731E-05  2.19791476E+04  0.00000000E+00  0.00000000E+00  2.19791476E+04
        49   28       1.84599826E-04  0.00000000E+00  1.66416895E+05  0.00000000E+00  1.66416895E+05
        49   40       1.84599826E-04  1.66416895E+05  0.00000000E+00  0.00000000E+00  1.66416895E+05
        49   29       1.03630429E-04  0.00000000E+00  1.29144898E+05  0.00000000E+00  1.29144898E+05
        49   41       1.03630429E-04  1.29144898E+05  0.00000000E+00  0.00000000E+00  1.29144898E+05
        49   98       4.97037667E-04  0.00000000E+00  0.00000000E+00  1.55765515E+06  1.55765515E+06
        65   20       2.40741858E-05  0.00000000E+00  0.00000000E+00  4.26163283E+03  4.26163283E+03
        65   90       7.85486301E-05  0.00000000E+00  3.03176710E+04  0.00000000E+00  3.03176710E+04
        65   21       1.71287258E-02  0.00000000E+00  0.00000000E+00  1.64075705E+07  1.64075705E+07
        65   23       1.86313256E-05  0.00000000E+00  0.00000000E+00  3.96201224E+04  3.96201224E+04
        65   91       6.41286685E-05  0.00000000E+00  2.23274687E+05  0.00000000E+00  2.23274687E+05
        65   92       1.01197069E-04  0.00000000E+00  4.16406796E+05  0.00000000E+00  4.16406796E+05
        65   57       1.01197069E-04  4.16406796E+05  0.00000000E+00  0.00000000E+00  4.16406796E+05
        77   32       2.40741858E-05  0.00000000E+00  0.00000000E+00  4.26163283E+03  4.26163283E+03
        77   90       7.85486301E-05  3.03176710E+04  0.00000000E+00  0.00000000E+00  3.03176710E+04
        77   33       1.71287258E-02  0.00000000E+00  0.00000000E+00  1.64075705E+07  1.64075705E+07
        77   35       1.86313256E-05  0.00000000E+00  0.00000000E+00  3.96201224E+04  3.96201224E+04
        77   91       6.41286685E-05  2.23274687E+05  0.00000000E+00  0.00000000E+00  2.23274687E+05
        77   92       1.01197069E-04  4.16406796E+05  0.00000000E+00  0.00000000E+00  4.16406796E+05
        77   57       1.01197069E-04  0.00000000E+00  4.16406796E+05  0.00000000E+00  4.16406796E+05
        37   85       1.86722855E-04  0.00000000E+00  0.00000000E+00  1.28899608E+04  1.28899608E+04
        37   13       9.99418954E-05  0.00000000E+00  4.19114773E+04  0.00000000E+00  4.19114773E+04
        37   51       9.99418954E-05  4.19114773E+04  0.00000000E+00  0.00000000E+00  4.19114773E+04
        37   14       3.69507700E-05  0.00000000E+00  1.62181651E+04  0.00000000E+00  1.62181651E+04
        37   86       7.61539839E-05  0.00000000E+00  0.00000000E+00  4.30440099E+04  4.30440099E+04
        37   53       3.55685947E-05  1.34376730E+05  0.00000000E+00  0.00000000E+00  1.34376730E+05
        25   73       1.86722855E-04  0.00000000E+00  0.00000000E+00  1.28899608E+04  1.28899608E+04
        25   13       9.99418954E-05  4.19114773E+04  0.00000000E+00  0.00000000E+00  4.19114773E+04
        25   51       9.99418954E-05  0.00000000E+00  4.19114773E+04  0.00000000E+00  4.19114773E+04
        25   14       3.69507700E-05  1.62181651E+04  0.00000000E+00  0.00000000E+00  1.62181651E+04
        25   74       7.61539839E-05  0.00000000E+00  0.00000000E+00  4.30440099E+04  4.30440099E+04
        25   53       3.55685947E-05  0.00000000E+00  1.34376730E+05  0.00000000E+00  1.34376730E+05
        71   96       7.38887614E-05  0.00000000E+00  4.66799296E+03  0.00000000E+00  4.66799296E+03
        71   26       6.01184618E-04  0.00000000E+00  0.00000000E+00  1.68228529E+05  1.68228529E+05
        71   28       2.57284389E-02  0.00000000E+00  0.00000000E+00  1.56678338E+07  1.56678338E+07
        71   29       4.32079847E-04  0.00000000E+00  0.00000000E+00  3.87678975E+05  3.87678975E+05
        71   62       1.10728648E-04  1.07373971E+05  0.00000000E+00  0.00000000E+00  1.07373971E+05
        71   63       8.25523403E-05  1.61906865E+05  0.00000000E+00  0.00000000E+00  1.61906865E+05
        71   97       8.25523403E-05  0.00000000E+00  1.61906865E+05  0.00000000E+00  1.61906865E+05
        71   98       1.04092703E-04  0.00000000E+00  2.66866215E+05  0.00000000E+00  2.66866215E+05
        83   96       7.38887614E-05  4.66799296E+03  0.00000000E+00  0.00000000E+00  4.66799296E+03
        83   38       6.01184618E-04  0.00000000E+00  0.00000000E+00  1.68228529E+05  1.68228529E+05
        83   40       2.57284389E-02  0.00000000E+00  0.00000000E+00  1.56678338E+07  1.56678338E+07
        83   41       4.32079847E-04  0.00000000E+00  0.00000000E+00  3.87678975E+05  3.87678975E+05
        83   62       1.10728648E-04  0.00000000E+00  1.07373971E+05  0.00000000E+00  1.07373971E+05
        83   63       8.25523403E-05  0.00000000E+00  1.61906865E+05  0.00000000E+00  1.61906865E+05
        83   97       8.25523403E-05  1.61906865E+05  0.00000000E+00  0.00000000E+00  1.61906865E+05
        83   98       1.04092703E-04  2.66866215E+05  0.00000000E+00  0.00000000E+00  2.66866215E+05
        56    4       1.31450166E-02  0.00000000E+00  0.00000000E+00  5.61543604E+05  5.61543604E+05
        56    5       1.42143836E-02  0.00000000E+00  0.00000000E+00  4.75972571E+06  4.75972571E+06
        56    6       2.99277467E-04  0.00000000E+00  0.00000000E+00  1.59749066E+05  1.59749066E+05
        56    8       9.17283030E-03  0.00000000E+00  0.00000000E+00  8.22208705E+06  8.22208705E+06
        56   80       6.23083573E-04  0.00000000E+00  6.14176802E+05  0.00000000E+00  6.14176802E+05
        56   68       6.23083573E-04  6.14176802E+05  0.00000000E+00  0.00000000E+00  6.14176802E+05
        56    9       1.84718616E-04  0.00000000E+00  0.00000000E+00  6.29667563E+05  6.29667563E+05
        56   12       1.77089389E-03  0.00000000E+00  0.00000000E+00  1.10596948E+07  1.10596948E+07
        72   27       2.61401171E-02  0.00000000E+00  0.00000000E+00  1.30473132E+07  1.30473132E+07
        72   63       4.62530628E-04  8.51348285E+05  0.00000000E+00  0.00000000E+00  8.51348285E+05
        72   97       4.62530628E-04  0.00000000E+00  8.51348285E+05  0.00000000E+00  8.51348285E+05
        84   39       2.61401171E-02  0.00000000E+00  0.00000000E+00  1.30473132E+07  1.30473132E+07
        84   63       4.62530628E-04  0.00000000E+00  8.51348285E+05  0.00000000E+00  8.51348285E+05
        84   97       4.62530628E-04  8.51348285E+05  0.00000000E+00  0.00000000E+00  8.51348285E+05
        60   13       8.32541630E-05  0.00000000E+00  0.00000000E+00  2.53983783E+04  2.53983783E+04
        60   86       2.60388857E-05  0.00000000E+00  1.12248222E+04  0.00000000E+00  1.12248222E+04
        60   74       2.60388857E-05  1.12248222E+04  0.00000000E+00  0.00000000E+00  1.12248222E+04
        95   51       8.32541630E-05  0.00000000E+00  0.00000000E+00  2.53983783E+04  2.53983783E+04
        95   86       2.60388857E-05  1.12248222E+04  0.00000000E+00  0.00000000E+00  1.12248222E+04
        95   74       2.60388857E-05  0.00000000E+00  1.12248222E+04  0.00000000E+00  1.12248222E+04
        16   42       3.56861444E-05  0.00000000E+00  1.02093142E+03  0.00000000E+00  1.02093142E+03
        16   30       3.56861444E-05  1.02093142E+03  0.00000000E+00  0.00000000E+00  1.02093142E+03
        54   42       3.56861444E-05  1.02093142E+03  0.00000000E+00  0.00000000E+00  1.02093142E+03
        54   30       3.56861444E-05  0.00000000E+00  1.02093142E+03  0.00000000E+00  1.02093142E+03
        17   42       1.77907238E-05  0.00000000E+00  4.29249327E+02  0.00000000E+00  4.29249327E+02
        17   30       1.77907238E-05  4.29249327E+02  0.00000000E+00  0.00000000E+00  4.29249327E+02
        61   73       4.27725357E-05  5.56836929E+02  0.00000000E+00  0.00000000E+00  5.56836929E+02
        61   85       4.27725357E-05  0.00000000E+00  5.56836929E+02  0.00000000E+00  5.56836929E+02
        61   14       9.79856094E-05  0.00000000E+00  0.00000000E+00  2.58736401E+04  2.58736401E+04
        61   86       4.95472937E-05  0.00000000E+00  1.80261072E+04  0.00000000E+00  1.80261072E+04
        61   74       4.95472937E-05  1.80261072E+04  0.00000000E+00  0.00000000E+00  1.80261072E+04
        44   32       2.06312057E-04  6.59733591E+03  0.00000000E+00  0.00000000E+00  6.59733591E+03
        44   20       2.06312057E-04  0.00000000E+00  6.59733591E+03  0.00000000E+00  6.59733591E+03
        44   33       1.04507043E-04  5.67351916E+04  0.00000000E+00  0.00000000E+00  5.67351916E+04
        44   21       1.04507043E-04  0.00000000E+00  5.67351916E+04  0.00000000E+00  5.67351916E+04
        44   34       1.58594286E-04  1.79442978E+05  0.00000000E+00  0.00000000E+00  1.79442978E+05
        44   22       1.58594286E-04  0.00000000E+00  1.79442978E+05  0.00000000E+00  1.79442978E+05
        44   35       2.40292879E-04  3.55513643E+05  0.00000000E+00  0.00000000E+00  3.55513643E+05
        44   23       2.40292879E-04  0.00000000E+00  3.55513643E+05  0.00000000E+00  3.55513643E+05
        44   92       4.94648601E-04  0.00000000E+00  0.00000000E+00  1.57885950E+06  1.57885950E+06
         3   32       2.06312057E-04  0.00000000E+00  6.59733591E+03  0.00000000E+00  6.59733591E+03
         3   20       2.06312057E-04  6.59733591E+03  0.00000000E+00  0.00000000E+00  6.59733591E+03
         3   33       1.04507043E-04  0.00000000E+00  5.67351916E+04  0.00000000E+00  5.67351916E+04
         3   21       1.04507043E-04  5.67351916E+04  0.00000000E+00  0.00000000E+00  5.67351916E+04
         3   34       1.58594286E-04  0.00000000E+00  1.79442978E+05  0.00000000E+00  1.79442978E+05
         3   22       1.58594286E-04  1.79442978E+05  0.00000000E+00  0.00000000E+00  1.79442978E+05
         3   35       2.40292879E-04  0.00000000E+00  3.55513643E+05  0.00000000E+00  3.55513643E+05
         3   23       2.40292879E-04  3.55513643E+05  0.00000000E+00  0.00000000E+00  3.55513643E+05
         3   57       4.94648601E-04  0.00000000E+00  0.00000000E+00  1.57885950E+06  1.57885950E+06
        73   26       2.97133750E-04  0.00000000E+00  0.00000000E+00  2.54606490E+04  2.54606490E+04
        73   28       2.23427708E-04  0.00000000E+00  0.00000000E+00  6.61448919E+04  6.61448919E+04
        73   29       2.29144955E-02  0.00000000E+00  0.00000000E+00  1.15825627E+07  1.15825627E+07
        73   63       3.76454358E-04  5.10220620E+05  0.00000000E+00  0.00000000E+00  5.10220620E+05
        73   97       3.76454358E-04  0.00000000E+00  5.10220620E+05  0.00000000E+00  5.10220620E+05
        73   98       1.12459985E-03  0.00000000E+00  2.09508561E+06  0.00000000E+00  2.09508561E+06
        85   38       2.97133750E-04  0.00000000E+00  0.00000000E+00  2.54606490E+04  2.54606490E+04
        85   40       2.23427708E-04  0.00000000E+00  0.00000000E+00  6.61448919E+04  6.61448919E+04
        85   41       2.29144955E-02  0.00000000E+00  0.00000000E+00  1.15825627E+07  1.15825627E+07
        85   63       3.76454358E-04  0.00000000E+00  5.10220620E+05  0.00000000E+00  5.10220620E+05
        85   97       3.76454358E-04  5.10220620E+05  0.00000000E+00  0.00000000E+00  5.10220620E+05
        85   98       1.12459985E-03  2.09508561E+06  0.00000000E+00  0.00000000E+00  2.09508561E+06
        42   18       5.18356015E-04  0.00000000E+00  4.99350668E+05  0.00000000E+00  4.99350668E+05
[...]
        61   14            82.283781  9.79856094E-05  5.53084205E-04
        61   86            96.382189  4.95472937E-05  1.36953794E-03
        61   74            96.382189  4.95472937E-05  1.36953794E-03
        44   32            79.323327  2.06312057E-04  9.97801049E-04
        44   20            79.323327  2.06312057E-04  9.97801049E-04
        44   33            68.742653  1.04507043E-04  3.34343929E-04
        44   21            68.742653  1.04507043E-04  3.34343929E-04
        44   34            76.944577  1.58594286E-04  6.87882773E-04
        44   22            76.944577  1.58594286E-04  6.87882773E-04
        44   35            84.397013  2.40292879E-04  1.54004407E-03
        44   23            84.397013  2.40292879E-04  1.54004407E-03
        44   92          1265.131886  4.94648601E-04  3.62344918E-05
         3   32            79.323327  2.06312057E-04  9.97801049E-04
         3   20            79.323327  2.06312057E-04  9.97801049E-04
         3   33            68.742653  1.04507043E-04  3.34343929E-04
         3   21            68.742653  1.04507043E-04  3.34343929E-04
         3   34            76.944577  1.58594286E-04  6.87882773E-04
         3   22            76.944577  1.58594286E-04  6.87882773E-04
         3   35            84.397013  2.40292879E-04  1.54004407E-03
         3   23            84.397013  2.40292879E-04  1.54004407E-03
         3   57          1265.131886  4.94648601E-04  3.62344918E-05
        73   96      --------------- below threshold  6.53050660E-02
        73   26           129.083022  2.97133750E-04  1.29705705E-04
        73   28           331.013034  2.23427708E-04  5.18378077E-05
        73   29            50.112142  2.29144955E-02  1.52649181E-02
        73   63          1668.401852  3.76454358E-04  2.12878288E-05
        73   97          1668.401851  3.76454358E-04  2.12878288E-05
        73   98          3487.202331  1.12459985E-03  3.13503322E-05
        85   96      --------------- below threshold  6.53050660E-02
        85   38           129.083022  2.97133750E-04  1.29705705E-04
        85   40           331.013034  2.23427708E-04  5.18378077E-05
        85   41            50.112142  2.29144955E-02  1.52649181E-02
        85   63          1668.401851  3.76454358E-04  2.12878288E-05
        85   97          1668.401852  3.76454358E-04  2.12878288E-05
        85   98          3487.202332  1.12459985E-03  3.13503322E-05
        42   18            88.505946  5.18356015E-04  4.50977529E-03
        30   18            88.505946  5.18356015E-04  4.50977529E-03
         4   32            99.658649  1.02913889E-05  3.01490215E-03
         4   20            99.658649  1.02913889E-05  3.01490215E-03
         4   33            96.601825  2.05019761E-05  6.03323085E-04
         4   21            96.601825  2.05019761E-05  6.03323085E-04
         4   35      --------------- below threshold  1.93578574E-04
         4   23      --------------- below threshold  1.93578574E-04
        96   50            93.553268  1.09126019E-05  1.69273390E-04
        96   86      --------------- below threshold  6.57414256E-03
        96   74      --------------- below threshold  6.57414256E-03
        96   53            16.954209  1.02726776E-03  8.78350396E-04
        32   79            67.938018  3.93140064E-05  1.22618763E-04
        32    5            80.690970  6.74180984E-04  3.49153215E-03
        32   45            93.079240  8.51203952E-05  1.22992838E-03
        32    7            93.079240  8.51203952E-05  1.22992838E-03
        32    8            99.201409  2.30144374E-05  2.88188039E-03
        32   80            38.071040  5.42126138E-05  8.75400041E-05
        32    9      ---------------  1.19503235E-05 below threshold
        32   47           283.310374  1.53853493E-03  4.01380979E-04
        32   12      ---------------  1.54917115E-05 below threshold
        20   67            67.938018  3.93140064E-05  1.22618763E-04
        20    5            80.690970  6.74180984E-04  3.49153215E-03
        20   45            93.079240  8.51203952E-05  1.22992838E-03
        20    7            93.079240  8.51203952E-05  1.22992838E-03
        20    8            99.201409  2.30144374E-05  2.88188039E-03
        20   68            38.071040  5.42126138E-05  8.75400041E-05
        20    9      ---------------  1.19503235E-05 below threshold
        20   47           283.310374  1.53853493E-03  4.01380979E-04
        20   12      ---------------  1.54917115E-05 below threshold
        50   26            98.618099  4.05479656E-05  2.93421586E-03
        50   38            98.618099  4.05479656E-05  2.93421586E-03
        50   28            99.379756  1.15989476E-05  1.87006294E-03
        50   40            99.379756  1.15989476E-05  1.87006294E-03
        50   29      --------------- below threshold  2.12678650E-05
        50   41      --------------- below threshold  2.12678650E-05
        50   98      --------------- below threshold  2.01995458E-05
        66   22            98.829898  3.60253944E-02  1.81187008E-02
        66   92      --------------- below threshold  3.28554620E-03
        66   57      --------------- below threshold  3.28554620E-03
        78   34            98.829898  3.60253944E-02  1.81187008E-02
        78   92      --------------- below threshold  3.28554620E-03
        78   57      --------------- below threshold  3.28554620E-03
        26   13      --------------- below threshold  5.57343993E-05
        26   51      --------------- below threshold  5.57343993E-05
        26   14      --------------- below threshold  4.55624026E-03
        26   74           344.289368  1.10863410E-03  2.49529738E-04
        26   15            49.844042  4.47843676E-05  8.92902249E-05
        26   52            49.844042  4.47843676E-05  8.92902249E-05
        26   53            41.108608  4.87657463E-05  8.28062377E-05
        38   13      --------------- below threshold  5.57343993E-05
        38   51      --------------- below threshold  5.57343993E-05
        38   14      --------------- below threshold  4.55624026E-03
        38   86           344.289368  1.10863410E-03  2.49529738E-04
        38   15            49.844042  4.47843676E-05  8.92902249E-05
        38   52            49.844042  4.47843676E-05  8.92902249E-05
        38   53            41.108608  4.87657463E-05  8.28062377E-05
        90   67      --------------- below threshold  3.51491446E-02
        90   79      --------------- below threshold  3.51491446E-02
        90   80            99.769201  2.04726302E-05  8.87032442E-03
        90   68            99.769201  2.04726302E-05  8.87032442E-03
        90   47           131.128391  5.65288671E-02  2.44577773E-02
        67   21           124.082387  9.73197109E-04  4.34303259E-04
        67   23            56.165943  2.86576696E-02  1.83507806E-02
        67   91           424.061197  5.84390869E-04  1.11511952E-04
        67   92            67.951657  4.56654818E-04  1.42489370E-03
        67   57            67.951657  4.56654818E-04  1.42489370E-03
        79   33           124.082387  9.73197109E-04  4.34303259E-04
        79   35            56.165943  2.86576696E-02  1.83507806E-02
        79   91           424.061198  5.84390869E-04  1.11511952E-04
        79   92            67.951657  4.56654818E-04  1.42489370E-03
        79   57            67.951657  4.56654818E-04  1.42489370E-03
        13   27            99.584833  2.65127342E-05  6.38604072E-03
        13   39            99.584833  2.65127342E-05  6.38604072E-03
        13   28      --------------- below threshold  4.22357780E-03
        13   40      --------------- below threshold  4.22357780E-03
        13   29      --------------- below threshold  1.04247795E-03
        13   41      --------------- below threshold  1.04247795E-03
        13   63      --------------- below threshold  1.75367186E-05
        51   27            99.584833  2.65127342E-05  6.38604072E-03
        51   39            99.584833  2.65127342E-05  6.38604072E-03
        51   28      --------------- below threshold  4.22357780E-03
        51   40      --------------- below threshold  4.22357780E-03
        51   29      --------------- below threshold  1.04247795E-03
        51   41      --------------- below threshold  1.04247795E-03
        51   97      --------------- below threshold  1.75367186E-05
         5   33      --------------- below threshold  1.06270914E-03
         5   21      --------------- below threshold  1.06270914E-03
         5   35           803.601404  1.01904905E-04  1.12776390E-05
         5   23           803.601404  1.01904905E-04  1.12776390E-05
        14   28            99.800605  2.47272104E-05  1.24011472E-02
        14   40            99.800605  2.47272104E-05  1.24011472E-02
        14   29      --------------- below threshold  3.96856045E-04
        14   41      --------------- below threshold  3.96856045E-04
        86   40      --------------- below threshold  6.13736130E-04
        86   41            46.009229  6.44766512E-04  1.19421616E-03
        86   62      --------------- below threshold  2.51703333E-03
        86   63      --------------- below threshold  2.05002888E-03
        86   97      --------------- below threshold  2.05002888E-03
        86   98            97.697841  6.10223408E-05  2.65065722E-03
        74   28      --------------- below threshold  6.13736130E-04
        74   29            46.009229  6.44766512E-04  1.19421616E-03
        74   62      --------------- below threshold  2.51703333E-03
        74   63      --------------- below threshold  2.05002888E-03
        74   97      --------------- below threshold  2.05002888E-03
        74   98            97.697841  6.10223408E-05  2.65065722E-03
        27   15            93.962043  1.16161447E-04  1.92385351E-03
        27   52            93.962043  1.16161447E-04  1.92385351E-03
        39   15            93.962043  1.16161447E-04  1.92385351E-03
        39   52            93.962043  1.16161447E-04  1.92385351E-03
         6   33      --------------- below threshold  3.04175091E-04
         6   21      --------------- below threshold  3.04175091E-04
         6   35      --------------- below threshold  6.29230459E-05
         6   23      --------------- below threshold  6.29230459E-05
        28   15            78.084307  1.53004450E-04  6.98150163E-04
        28   52            78.084307  1.53004450E-04  6.98150163E-04
        28   53            99.445127  1.61514971E-05  2.91084747E-03
        40   15            78.084307  1.53004450E-04  6.98150163E-04
        40   52            78.084307  1.53004450E-04  6.98150163E-04
        40   53            99.445127  1.61514971E-05  2.91084747E-03
        33   45      --------------- below threshold  5.42315910E-03
        33    7      --------------- below threshold  5.42315910E-03
        33    8            99.907891  1.52276388E-05  1.65322465E-02
        33   80           225.857758  2.04215337E-03  6.26700859E-04
        33    9            85.016378  2.91244341E-04  1.94375131E-03
        33   47            31.676217  8.15469954E-03  1.19353748E-02
        33   11            95.921088  2.06733709E-05  5.06835389E-04
        33   12      --------------- below threshold  1.43276122E-04
        21   45      --------------- below threshold  5.42315910E-03
        21    7      --------------- below threshold  5.42315910E-03
        21    8            99.907891  1.52276388E-05  1.65322465E-02
        21   68           225.857758  2.04215337E-03  6.26700859E-04
        21    9            85.016378  2.91244341E-04  1.94375131E-03
        21   47            31.676217  8.15469954E-03  1.19353748E-02
        21   11            95.921088  2.06733709E-05  5.06835389E-04
        21   12      --------------- below threshold  1.43276122E-04
        45   34            99.146917  3.60595188E-05  4.22696328E-03
        45   22            99.146917  3.60595188E-05  4.22696328E-03
        45   35      --------------- below threshold  1.19995639E-03
        45   23      --------------- below threshold  1.19995639E-03
        45   92            84.249266  1.76197581E-05  1.11866267E-04
         7   34            99.146917  3.60595188E-05  4.22696328E-03
         7   22            99.146917  3.60595188E-05  4.22696328E-03
         7   35      --------------- below threshold  1.19995639E-03
         7   23      --------------- below threshold  1.19995639E-03
         7   57            84.249266  1.76197581E-05  1.11866267E-04
        29   15      ---------------  1.80240100E-05 below threshold
        29   52      ---------------  1.80240100E-05 below threshold
        29   53            91.661938  2.18381531E-04  2.61909216E-03
        41   15      ---------------  1.80240100E-05 below threshold
        41   52      ---------------  1.80240100E-05 below threshold
        41   53            91.661938  2.18381531E-04  2.61909216E-03
         8   35            99.338004  1.47007215E-05  2.22066687E-03
         8   23            99.338004  1.47007215E-05  2.22066687E-03
        80   35            25.714505  1.66457171E-03  2.24077622E-03
        80   91      --------------- below threshold  3.38525264E-03
        80   92            58.246085  2.36529670E-04  5.66485007E-04
        80   57            58.246085  2.36529670E-04  5.66485007E-04
        68   23            25.714505  1.66457171E-03  2.24077622E-03
        68   91      --------------- below threshold  3.38525264E-03
        68   92            58.246085  2.36529670E-04  5.66485007E-04
        68   57            58.246085  2.36529670E-04  5.66485007E-04
        34   10      ---------------  1.88951372E-04 below threshold
        34   46      ---------------  1.88951372E-04 below threshold
        34   11            98.198840  5.53125974E-05  3.07094273E-03
        22   10      ---------------  1.88951372E-04 below threshold
        22   46      ---------------  1.88951372E-04 below threshold
        22   11            98.198840  5.53125974E-05  3.07094273E-03
        35   47           369.077943  3.01254006E-04  6.42225904E-05
        35   11            94.705059  3.92404134E-05  7.41092511E-04
        35   12            99.559063  2.61391432E-05  5.92808527E-03
        23   47           369.077943  3.01254006E-04  6.42225904E-05
        23   11            94.705059  3.92404134E-05  7.41092511E-04
        23   12            99.559063  2.61391432E-05  5.92808527E-03
        63   15      --------------- below threshold  6.36504515E-05
        97   52      --------------- below threshold  6.36504515E-05
        98   53      --------------- below threshold  2.92661151E-04
        91   47      ---------------  5.43710635E-05 below threshold
        57   11      --------------- below threshold  2.84495398E-04
     ---------------------------------------------------------------

 Number of problematic transitions =                   536

--

 Electric-dipole - electric-octupole not included
 Electric-dipole - magnetic-quadrupole not included


      ****************************************************************************************************
      *                                                                                                  *
      *                                    Special properties section                                    *
      *                                                                                                  *
      ****************************************************************************************************


++ I/O STATISTICS
 
  I. General I/O information
  - - - - - - - - - - - - - - - - - - - - - - - - - - - - - - - - - - - - - - - - - - -
  Unit  Name          Flsize      Write/Read            MBytes           Write/Read
                      (MBytes)       Calls              In/Out           Time, sec.
  - - - - - - - - - - - - - - - - - - - - - - - - - - - - - - - - - - - - - - - - - - -
   1  RUNFILE           0.99 .     266/  263081 .      2.5/   1903.2 .       0/       0
   2  ANNI              0.00 .       0/       0 .      0.0/      0.0 .       0/       0
   3  ONEINT            1.54 .       0/  126040 .      0.0/ 152831.4 .       0/      18
   4  JOBIPH            1.52 .       0/     651 .      0.0/      1.5 .       0/       0
   5  JOBIPH01          1.22 .       0/     219 .      0.0/      1.3 .       0/       0
   6  JOBIPH02          1.22 .       0/     219 .      0.0/      1.3 .       0/       0
   7  JOBIPH03          1.28 .       0/     315 .      0.0/      1.4 .       0/       0
   8  JOBIPH04          1.32 .       0/     363 .      0.0/      1.4 .       0/       0
   9  JOBIPH05          1.15 .       0/     123 .      0.0/      1.3 .       0/       0
  10  JOBIPH06          1.28 .       0/     315 .      0.0/      1.4 .       0/       0
  11  JOBIPH07          1.32 .       0/     363 .      0.0/      1.4 .       0/       0
  12  JOBIPH08          1.15 .       0/     123 .      0.0/      1.3 .       0/       0
  13  JOBIPH09          1.28 .       0/     315 .      0.0/      1.4 .       0/       0
  14  JOBIPH10          1.32 .       0/     363 .      0.0/      1.4 .       0/       0
  15  JOBIPH11          1.15 .       0/     123 .      0.0/      1.3 .       0/       0
  16  JOBIPH12          1.22 .       0/     219 .      0.0/      1.3 .       0/       0
  17  JOBIPH13          1.32 .       0/     363 .      0.0/      1.4 .       0/       0
  18  JOBIPH14          1.28 .       0/     315 .      0.0/      1.4 .       0/       0
  19  JOBIPH15          1.32 .       0/     363 .      0.0/      1.4 .       0/       0
  20  JOBIPH16          1.15 .       0/     123 .      0.0/      1.3 .       0/       0
  21  JOBIPH17          1.28 .       0/     315 .      0.0/      1.4 .       0/       0
  22  JOBIPH18          1.32 .       0/     363 .      0.0/      1.4 .       0/       0
  23  JOBIPH19          1.15 .       0/     123 .      0.0/      1.3 .       0/       0
  24  JOBIPH20          1.28 .       0/     315 .      0.0/      1.4 .       0/       0
  25  JOBIPH21          1.32 .       0/     363 .      0.0/      1.4 .       0/       0
  26  JOBIPH22          1.15 .       0/     123 .      0.0/      1.3 .       0/       0
  - - - - - - - - - - - - - - - - - - - - - - - - - - - - - - - - - - - - - - - - - - -
   *  TOTAL            31.50 .     266/  395598 .      2.5/ 154765.6 .       0/      19
  - - - - - - - - - - - - - - - - - - - - - - - - - - - - - - - - - - - - - - - - - - -
 
  II. I/O Access Patterns
  - - - - - - - - - - - - - - - - - - - -
  Unit  Name               % of random
                         Write/Read calls
  - - - - - - - - - - - - - - - - - - - -
   1  RUNFILE             28.6/  11.1
   2  ANNI                 0.0/   0.0
   3  ONEINT               0.0/  99.3
   4  JOBIPH               0.0/  51.9
   5  JOBIPH01             0.0/  55.7
   6  JOBIPH02             0.0/  55.7
   7  JOBIPH03             0.0/  54.0
   8  JOBIPH04             0.0/  53.4
   9  JOBIPH05             0.0/  60.2
  10  JOBIPH06             0.0/  54.0
  11  JOBIPH07             0.0/  53.4
  12  JOBIPH08             0.0/  60.2
  13  JOBIPH09             0.0/  54.0
  14  JOBIPH10             0.0/  53.4
  15  JOBIPH11             0.0/  60.2
  16  JOBIPH12             0.0/  55.7
  17  JOBIPH13             0.0/  53.4
  18  JOBIPH14             0.0/  54.0
  19  JOBIPH15             0.0/  53.4
  20  JOBIPH16             0.0/  60.2
  21  JOBIPH17             0.0/  54.0
  22  JOBIPH18             0.0/  53.4
  23  JOBIPH19             0.0/  60.2
  24  JOBIPH20             0.0/  54.0
  25  JOBIPH21             0.0/  53.4
  26  JOBIPH22             0.0/  60.2
  - - - - - - - - - - - - - - - - - - - -
--
--- Stop Module: rassi at Thu Apr 17 10:58:29 2025 /rc=_RC_ALL_IS_WELL_ ---
--- Module rassi spent 40 seconds ---

.##################.
.# Happy landing! #.
.##################.

    Timing: Wall=40.77 User=19.86 System=20.30
