   This run of MOLCAS is using the pymolcas driver

                             OPE
                             OPE          NMOL  CASOP  ENMOLC A   SO
                 OPE        NMOLC        AS  OP EN  MO LC     AS  OP
                OPENM       OL CA        SO  PE NM  OL CA     SOP EN
                OP EN      MO   LC       AS  OP ENMOL  CASO   PENMOL
                OP  EN     MO   LC       AS  OP EN     MO     LC ASO
               OP   E  NMOL  C  AS       OP  EN MO     LC     AS  OP
               OP  E   NMO   LC AS        OPEN  MO     LCASOP EN   M
               O  PEN   MO  LCA  SO
            OPE   NMO   L   CAS    OP
        OPENMOL  CASOP     ENMOL   CASOPE
     OPENMOLCA   SOPENMOLCASOPEN   MOLCASOPE
    OPENMOLCAS   OP           EN   MOL    CAS
    OPENMOLCAS       OP  ENM        O     LCA
    OPENMOLCAS    OPEN  MOLCASO     P  E  NMO
    OPENMOLCAS     OP               E  N  MOL
    OPENMOLCA   SO           PENM   O  L  CAS    OPEN    MO    LCAS
    OPENMOLCA   SOP           ENM   O  L  CAS   OP  EN  MOLC  AS   O
    OPENMOLCA   SOPE           NM      O  LCA   S      OP  EN MO
    OPENMOLC                AS         O  PEN   M      OL  CA  SOPE
    OPENMO        LCASOPE  NMOL        C  ASO   P      ENMOLC     AS
    OPE     NMO      LCA  SO     P     E   NM   OL  CA SO  PE N   MO
          OPENMOLCA            SOPE   NMO        LCAS  O    P  ENMO
     OPENMOLCASOPENMOLCASOPENMOLCASOPENMOLCA
        OPENMOLCASOPENMOLCASOPENMOLCASOPE
            OPENMOLCASOPENMOLCASOPENM
               OPENMOLCASOPENMOLCA        version: 25.02
                   OPENMOLCASO
                       OPE                tag: 92-gf4b470f0a

 OpenMolcas is free software; you can redistribute it and/or modify it
 under the terms of the GNU Lesser General Public License version 2.1.
 OpenMolcas is distributed in the hope that it will be useful, but it
 is provided "as is" and without any express or implied warranties.
 For more details see the full text of the license in the file
 LICENSE or in <http://www.gnu.org/licenses/>.

                 Copyright (C) The OpenMolcas Authors
           For the author list and the recommended citation,
                   consult the file CONTRIBUTORS.md

           *************************************************
           * pymolcas version py2.29                       *
           *   build 2ba4516c4d154a59cba941070ba63e2c      *
           *   (after the EMIL interpreter by V. Veryazov) *
           *************************************************

configuration info
------------------
Host name: iftia91.univ.gda.pl (Linux)
C Compiler ID: GNU
C flags: -std=gnu99
Fortran Compiler ID: GNU
Fortran flags: -cpp -fdefault-integer-8 -fmax-stack-var-size=1048576
Definitions: _MOLCAS_;_I8_;_LINUX_
Parallel: OFF (GA=OFF)


   --------------------------------------------------------------------
  |
  |           Project: O2
  |    Submitted from: /scratch/tecumseh/WorkSpace/O2.0.6250
  |      Scratch area: /scratch/tecumseh/WorkSpace/O2.0.6250
  |   Save outputs to: WORKDIR
  |            Molcas: /home/tecumseh/program/OpenMolcas/build
  |
  | Scratch area is NOT empty
  |
  |    MOLCAS_DRIVER = /home/tecumseh/program/OpenMolcas/build/pymolcas
  |    MOLCAS_NPROCS = 1
  |    MOLCAS_SOURCE = /home/tecumseh/program/OpenMolcas/OpenMolcas
  | MOLCAS_STRUCTURE = 0
  |
   --------------------------------------------------------------------

++ ---------   Input file   ---------

>>> COPY $dir/vectors/$Project.$R.1Ag-12S.JobIph $WorkDir/JOBIPH

>>> COPY $dir/vectors/$Project.$R.3Ag-3S.JobIph $WorkDir/JOBIPH01

>>> COPY $dir/vectors/$Project.$R.5Ag-3S.JobIph $WorkDir/JOBIPH02

>>> COPY $dir/vectors/$Project.$R.1B3u-5S.JobIph $WorkDir/JOBIPH03

>>> COPY $dir/vectors/$Project.$R.3B3u-6S.JobIph $WorkDir/JOBIPH04

>>> COPY $dir/vectors/$Project.$R.5B3u-1S.JobIph $WorkDir/JOBIPH05

>>> COPY $dir/vectors/$Project.$R.1B2u-5S.JobIph $WorkDir/JOBIPH06

>>> COPY $dir/vectors/$Project.$R.3B2u-6S.JobIph $WorkDir/JOBIPH07

>>> COPY $dir/vectors/$Project.$R.5B2u-1S.JobIph $WorkDir/JOBIPH08

>>> COPY $dir/vectors/$Project.$R.1B1g-5S.JobIph $WorkDir/JOBIPH09

>>> COPY $dir/vectors/$Project.$R.3B1g-6S.JobIph $WorkDir/JOBIPH10

>>> COPY $dir/vectors/$Project.$R.5B1g-1S.JobIph $WorkDir/JOBIPH11

>>> COPY $dir/vectors/$Project.$R.1B1u-3S.JobIph $WorkDir/JOBIPH12

>>> COPY $dir/vectors/$Project.$R.3B1u-6S.JobIph $WorkDir/JOBIPH13

>>> COPY $dir/vectors/$Project.$R.1B2g-5S.JobIph $WorkDir/JOBIPH14

>>> COPY $dir/vectors/$Project.$R.3B2g-6S.JobIph $WorkDir/JOBIPH15

>>> COPY $dir/vectors/$Project.$R.5B2g-1S.JobIph $WorkDir/JOBIPH16

>>> COPY $dir/vectors/$Project.$R.1B3g-5S.JobIph $WorkDir/JOBIPH17

>>> COPY $dir/vectors/$Project.$R.3B3g-6S.JobIph $WorkDir/JOBIPH18

>>> COPY $dir/vectors/$Project.$R.5B3g-1S.JobIph $WorkDir/JOBIPH19

>>> COPY $dir/vectors/$Project.$R.1Au-5S.JobIph $WorkDir/JOBIPH20

>>> COPY $dir/vectors/$Project.$R.3Au-6S.JobIph $WorkDir/JOBIPH21

>>> COPY $dir/vectors/$Project.$R.5Au-1S.JobIph $WorkDir/JOBIPH22

&RASSI

OMEGa
NROF=23 12 3 3 5 6 1 5 6 1 5 6 1 3 6 5 6 1 5 6 1 5 6 1
1 2 3 4 5 6 7 8 9 10 11 12
1 2 3
1 2 3
1 2 3 4 5
1 2 3 4 5 6
1
1 2 3 4 5
1 2 3 4 5 6
1
1 2 3 4 5
1 2 3 4 5 6
1
1 2 3
1 2 3 4 5 6
1 2 3 4 5
1 2 3 4 5 6
1
1 2 3 4 5
1 2 3 4 5 6
1
1 2 3 4 5
1 2 3 4 5 6
1
EJOB

-- ----------------------------------

>>> COPY /home/tecumseh/project/molecule/O2/OpenMolcas/vectors/O2.0.6250.1Ag-12S.JobIph /scratch/tecumseh/WorkSpace/O2.0.6250/JOBIPH

>>> COPY /home/tecumseh/project/molecule/O2/OpenMolcas/vectors/O2.0.6250.3Ag-3S.JobIph /scratch/tecumseh/WorkSpace/O2.0.6250/JOBIPH01

>>> COPY /home/tecumseh/project/molecule/O2/OpenMolcas/vectors/O2.0.6250.5Ag-3S.JobIph /scratch/tecumseh/WorkSpace/O2.0.6250/JOBIPH02

>>> COPY /home/tecumseh/project/molecule/O2/OpenMolcas/vectors/O2.0.6250.1B3u-5S.JobIph /scratch/tecumseh/WorkSpace/O2.0.6250/JOBIPH03

>>> COPY /home/tecumseh/project/molecule/O2/OpenMolcas/vectors/O2.0.6250.3B3u-6S.JobIph /scratch/tecumseh/WorkSpace/O2.0.6250/JOBIPH04

>>> COPY /home/tecumseh/project/molecule/O2/OpenMolcas/vectors/O2.0.6250.5B3u-1S.JobIph /scratch/tecumseh/WorkSpace/O2.0.6250/JOBIPH05

>>> COPY /home/tecumseh/project/molecule/O2/OpenMolcas/vectors/O2.0.6250.1B2u-5S.JobIph /scratch/tecumseh/WorkSpace/O2.0.6250/JOBIPH06

>>> COPY /home/tecumseh/project/molecule/O2/OpenMolcas/vectors/O2.0.6250.3B2u-6S.JobIph /scratch/tecumseh/WorkSpace/O2.0.6250/JOBIPH07

>>> COPY /home/tecumseh/project/molecule/O2/OpenMolcas/vectors/O2.0.6250.5B2u-1S.JobIph /scratch/tecumseh/WorkSpace/O2.0.6250/JOBIPH08

>>> COPY /home/tecumseh/project/molecule/O2/OpenMolcas/vectors/O2.0.6250.1B1g-5S.JobIph /scratch/tecumseh/WorkSpace/O2.0.6250/JOBIPH09

>>> COPY /home/tecumseh/project/molecule/O2/OpenMolcas/vectors/O2.0.6250.3B1g-6S.JobIph /scratch/tecumseh/WorkSpace/O2.0.6250/JOBIPH10

>>> COPY /home/tecumseh/project/molecule/O2/OpenMolcas/vectors/O2.0.6250.5B1g-1S.JobIph /scratch/tecumseh/WorkSpace/O2.0.6250/JOBIPH11

>>> COPY /home/tecumseh/project/molecule/O2/OpenMolcas/vectors/O2.0.6250.1B1u-3S.JobIph /scratch/tecumseh/WorkSpace/O2.0.6250/JOBIPH12

>>> COPY /home/tecumseh/project/molecule/O2/OpenMolcas/vectors/O2.0.6250.3B1u-6S.JobIph /scratch/tecumseh/WorkSpace/O2.0.6250/JOBIPH13

>>> COPY /home/tecumseh/project/molecule/O2/OpenMolcas/vectors/O2.0.6250.1B2g-5S.JobIph /scratch/tecumseh/WorkSpace/O2.0.6250/JOBIPH14

>>> COPY /home/tecumseh/project/molecule/O2/OpenMolcas/vectors/O2.0.6250.3B2g-6S.JobIph /scratch/tecumseh/WorkSpace/O2.0.6250/JOBIPH15

>>> COPY /home/tecumseh/project/molecule/O2/OpenMolcas/vectors/O2.0.6250.5B2g-1S.JobIph /scratch/tecumseh/WorkSpace/O2.0.6250/JOBIPH16

>>> COPY /home/tecumseh/project/molecule/O2/OpenMolcas/vectors/O2.0.6250.1B3g-5S.JobIph /scratch/tecumseh/WorkSpace/O2.0.6250/JOBIPH17

>>> COPY /home/tecumseh/project/molecule/O2/OpenMolcas/vectors/O2.0.6250.3B3g-6S.JobIph /scratch/tecumseh/WorkSpace/O2.0.6250/JOBIPH18

>>> COPY /home/tecumseh/project/molecule/O2/OpenMolcas/vectors/O2.0.6250.5B3g-1S.JobIph /scratch/tecumseh/WorkSpace/O2.0.6250/JOBIPH19

>>> COPY /home/tecumseh/project/molecule/O2/OpenMolcas/vectors/O2.0.6250.1Au-5S.JobIph /scratch/tecumseh/WorkSpace/O2.0.6250/JOBIPH20

>>> COPY /home/tecumseh/project/molecule/O2/OpenMolcas/vectors/O2.0.6250.3Au-6S.JobIph /scratch/tecumseh/WorkSpace/O2.0.6250/JOBIPH21

>>> COPY /home/tecumseh/project/molecule/O2/OpenMolcas/vectors/O2.0.6250.5Au-1S.JobIph /scratch/tecumseh/WorkSpace/O2.0.6250/JOBIPH22

--- Start Module: rassi at Thu Apr 17 10:47:34 2025 ---

()()()()()()()()()()()()()()()()()()()()()()()()()()()()()()()()()()()()()()()()()()()()()()()()()()

                                               &RASSI

                                   only a single process is used
                       available to each process: 2.0 GB of memory, 1 thread?
                                            pid: 297472
()()()()()()()()()()()()()()()()()()()()()()()()()()()()()()()()()()()()()()()()()()()()()()()()()()


      ********************************************************************************
      *                                                                              *
      *                             General data section                             *
      *                                                                              *
      ********************************************************************************

   Specific data for JOBIPH file JOBIPH
   -------------------------------------

   Header from SEWARD:
                            O2, D2h symmetry, aug-cc-pVTZ                      
        Integrals generated by Gateway/Seward, Wed Apr 16 15:35:51 2025        

   CASSCF title (first line only):
       O2, 1Ag 12S                                                             

  STATE IRREP:                1
  SPIN MULTIPLICITY:          1
  ACTIVE ELECTRONS:          12
  MAX RAS1 HOLES:             0
  MAX RAS3 ELECTRONS:         0
  NR OF CONFIG:              60

   Specific data for JOBIPH file JOBIPH01
   -------------------------------------

   Header from SEWARD:
                            O2, D2h symmetry, aug-cc-pVTZ                      
        Integrals generated by Gateway/Seward, Wed Apr 16 15:35:51 2025        

   CASSCF title (first line only):
       O2, 3Ag  3S                                                             

  STATE IRREP:                1
  SPIN MULTIPLICITY:          3
  ACTIVE ELECTRONS:          12
  MAX RAS1 HOLES:             0
  MAX RAS3 ELECTRONS:         0
  NR OF CONFIG:              42

   Specific data for JOBIPH file JOBIPH02
   -------------------------------------

   Header from SEWARD:
                            O2, D2h symmetry, aug-cc-pVTZ                      
        Integrals generated by Gateway/Seward, Wed Apr 16 15:35:51 2025        

   CASSCF title (first line only):
       O2, 5Ag  3S                                                             

  STATE IRREP:                1
  SPIN MULTIPLICITY:          5
  ACTIVE ELECTRONS:          12
  MAX RAS1 HOLES:             0
  MAX RAS3 ELECTRONS:         0
  NR OF CONFIG:              10

   Specific data for JOBIPH file JOBIPH03
   -------------------------------------

   Header from SEWARD:
                            O2, D2h symmetry, aug-cc-pVTZ                      
        Integrals generated by Gateway/Seward, Thu Apr 17 10:47:24 2025        

   CASSCF title (first line only):
       O2, 1B3u 5S                                                             

  STATE IRREP:                2
  SPIN MULTIPLICITY:          1
  ACTIVE ELECTRONS:          12
  MAX RAS1 HOLES:             0
  MAX RAS3 ELECTRONS:         0
  NR OF CONFIG:              40

   Specific data for JOBIPH file JOBIPH04
   -------------------------------------

   Header from SEWARD:
                            O2, D2h symmetry, aug-cc-pVTZ                      
        Integrals generated by Gateway/Seward, Wed Apr 16 15:35:51 2025        

   CASSCF title (first line only):
       O2, 3B3u 6S                                                             

  STATE IRREP:                2
  SPIN MULTIPLICITY:          3
  ACTIVE ELECTRONS:          12
  MAX RAS1 HOLES:             0
  MAX RAS3 ELECTRONS:         0
  NR OF CONFIG:              48

   Specific data for JOBIPH file JOBIPH05
   -------------------------------------

   Header from SEWARD:
                            O2, D2h symmetry, aug-cc-pVTZ                      
        Integrals generated by Gateway/Seward, Wed Apr 16 15:35:51 2025        

   CASSCF title (first line only):
       O2, 5B3u 1S                                                             

  STATE IRREP:                2
  SPIN MULTIPLICITY:          5
  ACTIVE ELECTRONS:          12
  MAX RAS1 HOLES:             0
  MAX RAS3 ELECTRONS:         0
  NR OF CONFIG:               8

   Specific data for JOBIPH file JOBIPH06
   -------------------------------------

   Header from SEWARD:
                            O2, D2h symmetry, aug-cc-pVTZ                      
        Integrals generated by Gateway/Seward, Thu Apr 17 10:47:24 2025        

   CASSCF title (first line only):
       O2, 1B2u 5S                                                             

  STATE IRREP:                3
  SPIN MULTIPLICITY:          1
  ACTIVE ELECTRONS:          12
  MAX RAS1 HOLES:             0
  MAX RAS3 ELECTRONS:         0
  NR OF CONFIG:              40

   Specific data for JOBIPH file JOBIPH07
   -------------------------------------

   Header from SEWARD:
                            O2, D2h symmetry, aug-cc-pVTZ                      
        Integrals generated by Gateway/Seward, Wed Apr 16 15:35:51 2025        

   CASSCF title (first line only):
       O2, 3B2u 6S                                                             

  STATE IRREP:                3
  SPIN MULTIPLICITY:          3
  ACTIVE ELECTRONS:          12
  MAX RAS1 HOLES:             0
  MAX RAS3 ELECTRONS:         0
  NR OF CONFIG:              48

   Specific data for JOBIPH file JOBIPH08
   -------------------------------------

   Header from SEWARD:
                            O2, D2h symmetry, aug-cc-pVTZ                      
        Integrals generated by Gateway/Seward, Wed Apr 16 15:35:51 2025        

   CASSCF title (first line only):
       O2, 5B2u 1S                                                             

  STATE IRREP:                3
  SPIN MULTIPLICITY:          5
  ACTIVE ELECTRONS:          12
  MAX RAS1 HOLES:             0
  MAX RAS3 ELECTRONS:         0
  NR OF CONFIG:               8

   Specific data for JOBIPH file JOBIPH09
   -------------------------------------

   Header from SEWARD:
                            O2, D2h symmetry, aug-cc-pVTZ                      
        Integrals generated by Gateway/Seward, Wed Apr 16 15:35:51 2025        

   CASSCF title (first line only):
       O2, 1B1g 5S                                                             

  STATE IRREP:                4
  SPIN MULTIPLICITY:          1
  ACTIVE ELECTRONS:          12
  MAX RAS1 HOLES:             0
  MAX RAS3 ELECTRONS:         0
  NR OF CONFIG:              36

   Specific data for JOBIPH file JOBIPH10
   -------------------------------------

   Header from SEWARD:
                            O2, D2h symmetry, aug-cc-pVTZ                      
        Integrals generated by Gateway/Seward, Wed Apr 16 15:35:51 2025        

   CASSCF title (first line only):
       O2, 3B1g 6S                                                             

  STATE IRREP:                4
  SPIN MULTIPLICITY:          3
  ACTIVE ELECTRONS:          12
  MAX RAS1 HOLES:             0
  MAX RAS3 ELECTRONS:         0
  NR OF CONFIG:              48

   Specific data for JOBIPH file JOBIPH11
   -------------------------------------

   Header from SEWARD:
                            O2, D2h symmetry, aug-cc-pVTZ                      
        Integrals generated by Gateway/Seward, Wed Apr 16 15:35:51 2025        

   CASSCF title (first line only):
       O2, 5B1g 1S                                                             

  STATE IRREP:                4
  SPIN MULTIPLICITY:          5
  ACTIVE ELECTRONS:          12
  MAX RAS1 HOLES:             0
  MAX RAS3 ELECTRONS:         0
  NR OF CONFIG:              12

   Specific data for JOBIPH file JOBIPH12
   -------------------------------------

   Header from SEWARD:
                            O2, D2h symmetry, aug-cc-pVTZ                      
        Integrals generated by Gateway/Seward, Thu Apr 17 10:47:24 2025        

   CASSCF title (first line only):
       O2, 1B1u 3S                                                             

  STATE IRREP:                5
  SPIN MULTIPLICITY:          1
  ACTIVE ELECTRONS:          12
  MAX RAS1 HOLES:             0
  MAX RAS3 ELECTRONS:         0
  NR OF CONFIG:              44

   Specific data for JOBIPH file JOBIPH13
   -------------------------------------

   Header from SEWARD:
                            O2, D2h symmetry, aug-cc-pVTZ                      
        Integrals generated by Gateway/Seward, Wed Apr 16 15:35:51 2025        

   CASSCF title (first line only):
       O2, 3B1u 6S                                                             

  STATE IRREP:                5
  SPIN MULTIPLICITY:          3
  ACTIVE ELECTRONS:          12
  MAX RAS1 HOLES:             0
  MAX RAS3 ELECTRONS:         0
  NR OF CONFIG:              48

   Specific data for JOBIPH file JOBIPH14
   -------------------------------------

   Header from SEWARD:
                            O2, D2h symmetry, aug-cc-pVTZ                      
        Integrals generated by Gateway/Seward, Wed Apr 16 15:35:51 2025        

   CASSCF title (first line only):
       O2, 1B2g 5S                                                             

  STATE IRREP:                6
  SPIN MULTIPLICITY:          1
  ACTIVE ELECTRONS:          12
  MAX RAS1 HOLES:             0
  MAX RAS3 ELECTRONS:         0
  NR OF CONFIG:              40

   Specific data for JOBIPH file JOBIPH15
   -------------------------------------

   Header from SEWARD:
                            O2, D2h symmetry, aug-cc-pVTZ                      
        Integrals generated by Gateway/Seward, Wed Apr 16 15:35:51 2025        

   CASSCF title (first line only):
       O2, 3B2g 6S                                                             

  STATE IRREP:                6
  SPIN MULTIPLICITY:          3
  ACTIVE ELECTRONS:          12
  MAX RAS1 HOLES:             0
  MAX RAS3 ELECTRONS:         0
  NR OF CONFIG:              48

   Specific data for JOBIPH file JOBIPH16
   -------------------------------------

   Header from SEWARD:
                            O2, D2h symmetry, aug-cc-pVTZ                      
        Integrals generated by Gateway/Seward, Wed Apr 16 15:35:51 2025        

   CASSCF title (first line only):
       O2, 5B2g 1S                                                             

  STATE IRREP:                6
  SPIN MULTIPLICITY:          5
  ACTIVE ELECTRONS:          12
  MAX RAS1 HOLES:             0
  MAX RAS3 ELECTRONS:         0
  NR OF CONFIG:               8

   Specific data for JOBIPH file JOBIPH17
   -------------------------------------

   Header from SEWARD:
                            O2, D2h symmetry, aug-cc-pVTZ                      
        Integrals generated by Gateway/Seward, Wed Apr 16 15:35:51 2025        

   CASSCF title (first line only):
       O2, 1B3g 5S                                                             

  STATE IRREP:                7
  SPIN MULTIPLICITY:          1
  ACTIVE ELECTRONS:          12
  MAX RAS1 HOLES:             0
  MAX RAS3 ELECTRONS:         0
  NR OF CONFIG:              40

   Specific data for JOBIPH file JOBIPH18
   -------------------------------------

   Header from SEWARD:
                            O2, D2h symmetry, aug-cc-pVTZ                      
        Integrals generated by Gateway/Seward, Wed Apr 16 15:35:51 2025        

   CASSCF title (first line only):
       O2, 3B3g 6S                                                             

  STATE IRREP:                7
  SPIN MULTIPLICITY:          3
  ACTIVE ELECTRONS:          12
  MAX RAS1 HOLES:             0
  MAX RAS3 ELECTRONS:         0
  NR OF CONFIG:              48

   Specific data for JOBIPH file JOBIPH19
   -------------------------------------

   Header from SEWARD:
                            O2, D2h symmetry, aug-cc-pVTZ                      
        Integrals generated by Gateway/Seward, Wed Apr 16 15:35:51 2025        

   CASSCF title (first line only):
       O2, 5B3g 1S                                                             

  STATE IRREP:                7
  SPIN MULTIPLICITY:          5
  ACTIVE ELECTRONS:          12
  MAX RAS1 HOLES:             0
  MAX RAS3 ELECTRONS:         0
  NR OF CONFIG:               8

   Specific data for JOBIPH file JOBIPH20
   -------------------------------------

   Header from SEWARD:
                            O2, D2h symmetry, aug-cc-pVTZ                      
        Integrals generated by Gateway/Seward, Thu Apr 17 10:47:24 2025        

   CASSCF title (first line only):
       O2, 1Au 5S                                                              

  STATE IRREP:                8
  SPIN MULTIPLICITY:          1
  ACTIVE ELECTRONS:          12
  MAX RAS1 HOLES:             0
  MAX RAS3 ELECTRONS:         0
  NR OF CONFIG:              36

   Specific data for JOBIPH file JOBIPH21
   -------------------------------------

   Header from SEWARD:
                            O2, D2h symmetry, aug-cc-pVTZ                      
        Integrals generated by Gateway/Seward, Wed Apr 16 15:35:51 2025        

   CASSCF title (first line only):
       O2, 3Au 6S                                                              

  STATE IRREP:                8
  SPIN MULTIPLICITY:          3
  ACTIVE ELECTRONS:          12
  MAX RAS1 HOLES:             0
  MAX RAS3 ELECTRONS:         0
  NR OF CONFIG:              48

   Specific data for JOBIPH file JOBIPH22
   -------------------------------------

   Header from SEWARD:
                            O2, D2h symmetry, aug-cc-pVTZ                      
        Integrals generated by Gateway/Seward, Wed Apr 16 15:35:51 2025        

   CASSCF title (first line only):
       O2, 5Au 1S                                                              

  STATE IRREP:                8
  SPIN MULTIPLICITY:          5
  ACTIVE ELECTRONS:          12
  MAX RAS1 HOLES:             0
  MAX RAS3 ELECTRONS:         0
  NR OF CONFIG:              12
 ###############################################################################
 ###############################################################################
 ###                                                                         ###
 ###                                                                         ###
 ###    WARNING: EJOB used when HEFF is available, possible                  ###
 ###    extra interaction between states is ignored!                         ###
 ###                                                                         ###
 ###                                                                         ###
 ###############################################################################
 ###############################################################################

   The following data are common to all the states:
   ------------------------------------------------
   (note: frozen counts as inactive, deleted as secondary)

      Nr of irreps: 8

                 Total     No./Irrep 
      Irrep                  1   2   3   4   5   6   7   8
                            ag b3u b2u b1g b1u b2g b3g  au

      INACTIVE       2       1   0   0   0   1   0   0   0
      ACTIVE         8       2   1   1   0   2   1   1   0
      SECONDARY     82      16  10  10   5  16  10  10   5
      BASIS         92      19  11  11   5  19  11  11   5

      RAS1           0       0   0   0   0   0   0   0   0
      RAS2           8       2   1   1   0   2   1   1   0
      RAS3           0       0   0   0   0   0   0   0   0

        MATRIX ELEMENTS WILL BE COMPUTED FOR THE FOLLOWING ONE-ELECTRON OPERATORS, UNLESS ZERO BY SYMMETRY.
   (Herm=Hermitian, Anti=Antihermitian, Sing=Singlet operator, Trip=Triplet operator)
     MLTPL  0   1 (HERMSING)     MLTPL  1   1 (HERMSING)     MLTPL  1   2 (HERMSING)
     MLTPL  1   3 (HERMSING)     MLTPL  2   1 (HERMSING)     MLTPL  2   2 (HERMSING)
     MLTPL  2   3 (HERMSING)     MLTPL  2   4 (HERMSING)     MLTPL  2   5 (HERMSING)
     MLTPL  2   6 (HERMSING)     VELOCITY   1 (ANTISING)     VELOCITY   2 (ANTISING)
     VELOCITY   3 (ANTISING)     ANGMOM     1 (ANTISING)     ANGMOM     2 (ANTISING)
     ANGMOM     3 (ANTISING)     MLTPV  2   1 (ANTISING)     MLTPV  2   2 (ANTISING)
     MLTPV  2   3 (ANTISING)     MLTPV  2   4 (ANTISING)     MLTPV  2   5 (ANTISING)
     MLTPV  2   6 (ANTISING)

       EIGENSTATES OF A SPIN-FREE HAMILTONIAN WILL BE COMPUTED BASED ON:

  a Hamiltonian matrix assumed to be diagonal with energies read from the wavefunction file(s).

  Nr of states:                   99

   State:        1   2   3   4   5   6   7   8   9  10  11  12  13  14  15  16  17  18  19  20
  JobIph:        1   1   1   1   1   1   1   1   1   1   1   1   2   2   2   3   3   3   4   4
 Root nr:        1   2   3   4   5   6   7   8   9  10  11  12   1   2   3   1   2   3   1   2

   State:       21  22  23  24  25  26  27  28  29  30  31  32  33  34  35  36  37  38  39  40
  JobIph:        4   4   4   5   5   5   5   5   5   6   7   7   7   7   7   8   8   8   8   8
 Root nr:        3   4   5   1   2   3   4   5   6   1   1   2   3   4   5   1   2   3   4   5

   State:       41  42  43  44  45  46  47  48  49  50  51  52  53  54  55  56  57  58  59  60
  JobIph:        8   9  10  10  10  10  10  11  11  11  11  11  11  12  13  13  13  14  14  14
 Root nr:        6   1   1   2   3   4   5   1   2   3   4   5   6   1   1   2   3   1   2   3

   State:       61  62  63  64  65  66  67  68  69  70  71  72  73  74  75  76  77  78  79  80
  JobIph:       14  14  14  15  15  15  15  15  16  16  16  16  16  16  17  18  18  18  18  18
 Root nr:        4   5   6   1   2   3   4   5   1   2   3   4   5   6   1   1   2   3   4   5

   State:       81  82  83  84  85  86  87  88  89  90  91  92  93  94  95  96  97  98  99
  JobIph:       19  19  19  19  19  19  20  21  21  21  21  21  22  22  22  22  22  22  23
 Root nr:        1   2   3   4   5   6   1   1   2   3   4   5   1   2   3   4   5   6   1

  HAMILTONIAN MATRIX FOR THE ORIGINAL STATES:

  Diagonal, with energies
   -149.72359369   -149.70468469   -149.14606874   -149.13834654   -149.09548080
   -148.82947307   -148.82734452   -148.78959391   -148.59927146   -148.57577143
   -148.44380896   -148.40499648   -148.88456668   -148.87997868   -148.73742039
   -148.99063784   -148.98652650   -148.54313751   -149.27354532   -149.18617476
   -148.93941586   -148.81771121   -148.75915817   -149.33818063   -149.21865407
   -149.10222812   -148.88516868   -148.84714212   -148.83746782   -148.94915741
   -149.27354532   -149.18617476   -148.93941586   -148.81771121   -148.75915817
   -149.33818063   -149.21865407   -149.10222812   -148.88516868   -148.84714212
   -148.83746782   -148.94915741   -149.72359369   -149.14606874   -148.82947307
   -148.68528993   -148.62065258   -149.75810316   -149.20615377   -148.94375557
   -148.88456668   -148.73742039   -148.73390306   -148.99063784   -149.32459491
   -149.27508212   -148.74189963   -149.55565565   -149.55134736   -149.08101147
   -149.06641786   -148.84687121   -148.66516664   -149.40996592   -149.09824529
   -149.03303519   -149.00112939   -148.84928103   -149.46029941   -149.14852111
   -149.10342886   -149.09625196   -149.07138799   -148.89010492   -149.22207522
   -149.40996592   -149.09824529   -149.03303519   -149.00112939   -148.84928103
   -149.46029941   -149.14852111   -149.10342886   -149.09625196   -149.07138799
   -148.89010492   -149.22207522   -149.56386943   -149.32459491   -148.99469883
   -148.74189963   -148.54047245   -149.55565565   -149.41228889   -149.08101147
   -149.05160325   -148.77120044   -148.59948173   -149.16908901

      OVERLAP MATRIX FOR THE ORIGINAL STATES:

  Diagonal, with elements
      1.00000000      1.00000000      1.00000000      1.00000000      1.00000000
      1.00000000      1.00000000      1.00000000      1.00000000      1.00000000
      1.00000000      1.00000000      1.00000000      1.00000000      1.00000000
      1.00000000      1.00000000      1.00000000      1.00000000      1.00000000
      1.00000000      1.00000000      1.00000000      1.00000000      1.00000000
      1.00000000      1.00000000      1.00000000      1.00000000      1.00000000
      1.00000000      1.00000000      1.00000000      1.00000000      1.00000000
      1.00000000      1.00000000      1.00000000      1.00000000      1.00000000
      1.00000000      1.00000000      1.00000000      1.00000000      1.00000000
      1.00000000      1.00000000      1.00000000      1.00000000      1.00000000
      1.00000000      1.00000000      1.00000000      1.00000000      1.00000000
      1.00000000      1.00000000      1.00000000      1.00000000      1.00000000
      1.00000000      1.00000000      1.00000000      1.00000000      1.00000000
      1.00000000      1.00000000      1.00000000      1.00000000      1.00000000
      1.00000000      1.00000000      1.00000000      1.00000000      1.00000000
      1.00000000      1.00000000      1.00000000      1.00000000      1.00000000
      1.00000000      1.00000000      1.00000000      1.00000000      1.00000000
      1.00000000      1.00000000      1.00000000      1.00000000      1.00000000
      1.00000000      1.00000000      1.00000000      1.00000000      1.00000000
      1.00000000      1.00000000      1.00000000      1.00000000

::    RASSI State    1     Total energy:    -149.72359368559066
::    RASSI State    2     Total energy:    -149.70468469215001
::    RASSI State    3     Total energy:    -149.14606874430018
::    RASSI State    4     Total energy:    -149.13834654222228
::    RASSI State    5     Total energy:    -149.09548079941820
::    RASSI State    6     Total energy:    -148.82947307025759
::    RASSI State    7     Total energy:    -148.82734452340463
::    RASSI State    8     Total energy:    -148.78959390838088
::    RASSI State    9     Total energy:    -148.59927146409342
::    RASSI State   10     Total energy:    -148.57577142889039
::    RASSI State   11     Total energy:    -148.44380896042080
::    RASSI State   12     Total energy:    -148.40499648427223
::    RASSI State   13     Total energy:    -148.88456668323502
::    RASSI State   14     Total energy:    -148.87997868208379
::    RASSI State   15     Total energy:    -148.73742039287239
::    RASSI State   16     Total energy:    -148.99063783971994
::    RASSI State   17     Total energy:    -148.98652649766848
::    RASSI State   18     Total energy:    -148.54313751300691
::    RASSI State   19     Total energy:    -149.27354531786528
::    RASSI State   20     Total energy:    -149.18617476396327
::    RASSI State   21     Total energy:    -148.93941585831476
::    RASSI State   22     Total energy:    -148.81771120676493
::    RASSI State   23     Total energy:    -148.75915816759505
::    RASSI State   24     Total energy:    -149.33818062939051
::    RASSI State   25     Total energy:    -149.21865407242146
::    RASSI State   26     Total energy:    -149.10222812110734
::    RASSI State   27     Total energy:    -148.88516868268789
::    RASSI State   28     Total energy:    -148.84714211511658
::    RASSI State   29     Total energy:    -148.83746781829183
::    RASSI State   30     Total energy:    -148.94915740841714
::    RASSI State   31     Total energy:    -149.27354531786543
::    RASSI State   32     Total energy:    -149.18617476396332
::    RASSI State   33     Total energy:    -148.93941585831482
::    RASSI State   34     Total energy:    -148.81771120676490
::    RASSI State   35     Total energy:    -148.75915816759476
::    RASSI State   36     Total energy:    -149.33818062939042
::    RASSI State   37     Total energy:    -149.21865407242137
::    RASSI State   38     Total energy:    -149.10222812110734
::    RASSI State   39     Total energy:    -148.88516868268798
::    RASSI State   40     Total energy:    -148.84714211511655
::    RASSI State   41     Total energy:    -148.83746781829166
::    RASSI State   42     Total energy:    -148.94915740841705
::    RASSI State   43     Total energy:    -149.72359368559049
::    RASSI State   44     Total energy:    -149.14606874430027
::    RASSI State   45     Total energy:    -148.82947307025771
::    RASSI State   46     Total energy:    -148.68528993291559
::    RASSI State   47     Total energy:    -148.62065257563478
::    RASSI State   48     Total energy:    -149.75810315671961
::    RASSI State   49     Total energy:    -149.20615376836014
::    RASSI State   50     Total energy:    -148.94375557366544
::    RASSI State   51     Total energy:    -148.88456668323516
::    RASSI State   52     Total energy:    -148.73742039287262
::    RASSI State   53     Total energy:    -148.73390306374455
::    RASSI State   54     Total energy:    -148.99063783971985
::    RASSI State   55     Total energy:    -149.32459490921397
::    RASSI State   56     Total energy:    -149.27508211510141
::    RASSI State   57     Total energy:    -148.74189963452346
::    RASSI State   58     Total energy:    -149.55565564710298
::    RASSI State   59     Total energy:    -149.55134735643421
::    RASSI State   60     Total energy:    -149.08101146878286
::    RASSI State   61     Total energy:    -149.06641785629239
::    RASSI State   62     Total energy:    -148.84687120948300
::    RASSI State   63     Total energy:    -148.66516664017098
::    RASSI State   64     Total energy:    -149.40996591633620
::    RASSI State   65     Total energy:    -149.09824528936852
::    RASSI State   66     Total energy:    -149.03303518670688
::    RASSI State   67     Total energy:    -149.00112938529463
::    RASSI State   68     Total energy:    -148.84928102966933
::    RASSI State   69     Total energy:    -149.46029941091533
::    RASSI State   70     Total energy:    -149.14852110559431
::    RASSI State   71     Total energy:    -149.10342886217182
::    RASSI State   72     Total energy:    -149.09625196494875
::    RASSI State   73     Total energy:    -149.07138799206260
::    RASSI State   74     Total energy:    -148.89010491514287
::    RASSI State   75     Total energy:    -149.22207522131040
::    RASSI State   76     Total energy:    -149.40996591633635
::    RASSI State   77     Total energy:    -149.09824528936844
::    RASSI State   78     Total energy:    -149.03303518670700
::    RASSI State   79     Total energy:    -149.00112938529477
::    RASSI State   80     Total energy:    -148.84928102966941
::    RASSI State   81     Total energy:    -149.46029941091538
::    RASSI State   82     Total energy:    -149.14852110559434
::    RASSI State   83     Total energy:    -149.10342886217191
::    RASSI State   84     Total energy:    -149.09625196494875
::    RASSI State   85     Total energy:    -149.07138799206254
::    RASSI State   86     Total energy:    -148.89010491514284
::    RASSI State   87     Total energy:    -149.22207522131052
::    RASSI State   88     Total energy:    -149.56386943222196
::    RASSI State   89     Total energy:    -149.32459490921400
::    RASSI State   90     Total energy:    -148.99469883483039
::    RASSI State   91     Total energy:    -148.74189963452335
::    RASSI State   92     Total energy:    -148.54047245241031
::    RASSI State   93     Total energy:    -149.55565564710290
::    RASSI State   94     Total energy:    -149.41228889044041
::    RASSI State   95     Total energy:    -149.08101146878292
::    RASSI State   96     Total energy:    -149.05160324880518
::    RASSI State   97     Total energy:    -148.77120043874066
::    RASSI State   98     Total energy:    -148.59948173161177
::    RASSI State   99     Total energy:    -149.16908900745636



      ****************************************************************************************************
      *                                                                                                  *
      *                                         Spin-free section                                        *
      *                                                                                                  *
      *                 Note: index according to input order, order according to energy.                 *
      *                                                                                                  *
      ****************************************************************************************************



  SPIN-FREE ENERGIES:
  (Shifted by EMIN (a.u.) =       -149.7581031567)

 SF State       Relative EMIN(au)   Rel lowest level(eV)    D:o, cm**(-1)      L_eff   Abs_M

    48             0.0000000000        0.0000000000              0.0000         1.6     0.0
     1             0.0345094711        0.9390505480           7573.9535         2.3     2.0
    43             0.0345094711        0.9390505480           7573.9535         2.3     2.0
     2             0.0534184646        1.4535904721          11723.9978         1.6     0.0
    88             0.1942337245        5.2853688993          42629.3751         1.2     0.0
    58             0.2024475096        5.5088773787          44432.0925         2.1     2.0
    93             0.2024475096        5.5088773787          44432.0925         2.1     2.0
    59             0.2067558003        5.6261119402          45377.6530         1.2     0.0
    81             0.2978037458        8.1036527526          65360.3673         1.4     1.0
    69             0.2978037458        8.1036527526          65360.3673         1.4     1.0
    94             0.3458142663        9.4100855691          75897.4586         1.4     0.0
    76             0.3481372404        9.4732969147          76407.2925         2.5     1.0
    64             0.3481372404        9.4732969147          76407.2925         2.5     1.0
    24             0.4199225273       11.4266740845          92162.3419         1.9     1.0
    36             0.4199225273       11.4266740845          92162.3419         1.9     1.0
    89             0.4335082475       11.7963603637          95144.0628         2.2     2.0
    55             0.4335082475       11.7963603637          95144.0628         2.2     2.0
    56             0.4830210416       13.1436721284         106010.8650         1.0     0.0
    31             0.4845578389       13.1854905116         106348.1531         1.7     1.0
    19             0.4845578389       13.1854905116         106348.1531         1.7     1.0
    87             0.5360279354       14.5860631891         117644.5335         1.4     1.0
    75             0.5360279354       14.5860631891         117644.5335         1.4     1.0
    25             0.5394490843       14.6791573929         118395.3889         2.0     1.0
    37             0.5394490843       14.6791573929         118395.3889         2.0     1.0
    49             0.5519493884       15.0193079949         121138.8885         0.6     0.0
    32             0.5719283928       15.5629644003         125523.7732         1.3     1.0
    20             0.5719283928       15.5629644003         125523.7732         1.3     1.0
    99             0.5890141493       16.0278915200         129273.6633         0.1     0.0
    82             0.6095820511       16.5875726418         133787.7960         1.5     1.0
    70             0.6095820511       16.5875726418         133787.7960         1.5     1.0
    44             0.6120344124       16.6543047922         134326.0270         1.8     2.0
     3             0.6120344124       16.6543047922         134326.0270         1.8     2.0
     4             0.6197566145       16.8644366156         136020.8545         1.8     0.0
    83             0.6546742945       17.8145950943         143684.3995         2.9     3.0
    71             0.6546742945       17.8145950943         143684.3995         2.9     3.0
    38             0.6558750356       17.8472689231         143947.9317         1.2     1.0
    26             0.6558750356       17.8472689231         143947.9317         1.2     1.0
    65             0.6598578674       17.9556472959         144822.0622         1.8     1.0
    77             0.6598578674       17.9556472959         144822.0622         1.8     1.0
    72             0.6618511918       18.0098884166         145259.5463         1.3     1.0
    84             0.6618511918       18.0098884166         145259.5463         1.3     1.0
     5             0.6626223573       18.0308728998         145428.7976         1.1     0.0
    95             0.6770916879       18.4246034444         148604.4486         2.0     2.0
    60             0.6770916879       18.4246034444         148604.4486         2.0     2.0
    73             0.6867151647       18.6864715865         150716.5576         1.3     1.0
    85             0.6867151647       18.6864715865         150716.5576         1.3     1.0
    61             0.6916853004       18.8217158706         151807.3763         0.9     0.0
    96             0.7064999079       19.2248418770         155058.8068         1.3     0.0
    78             0.7250679700       19.7301045866         159134.0254         3.0     3.0
    66             0.7250679700       19.7301045866         159134.0254         3.0     3.0
    79             0.7569737714       20.5983056723         166136.5394         1.9     1.0
    67             0.7569737714       20.5983056723         166136.5394         1.9     1.0
    90             0.7634043219       20.7732898648         167547.8821         1.8     0.0
    16             0.7674653170       20.8837951713         168439.1675         1.9     2.0
    54             0.7674653170       20.8837951713         168439.1675         1.9     2.0
    17             0.7715766591       20.9956704878         169341.5028         0.8     0.0
    30             0.8089457483       22.0125352091         177543.0699         0.7     1.0
    42             0.8089457483       22.0125352091         177543.0699         0.7     1.0
    50             0.8143475831       22.1595266210         178728.6356         1.0     0.0
    33             0.8186872984       22.2776162916         179681.0930         1.3     1.0
    21             0.8186872984       22.2776162916         179681.0930         1.3     1.0
    74             0.8679982416       23.6194354124         190503.5941         0.7     1.0
    86             0.8679982416       23.6194354124         190503.5941         0.7     1.0
    39             0.8729344740       23.7537571403         191586.9719         1.0     1.0
    27             0.8729344740       23.7537571403         191586.9719         1.0     1.0
    51             0.8735364735       23.7701383799         191719.0955         2.2     2.0
    13             0.8735364735       23.7701383799         191719.0955         2.2     2.0
    14             0.8781244746       23.8949842514         192726.0454         1.4     0.0
    80             0.9088221271       24.7303099281         199463.4013         1.2     1.0
    68             0.9088221271       24.7303099281         199463.4013         1.2     1.0
    28             0.9109610416       24.7885127581         199932.8388         2.6     3.0
    40             0.9109610416       24.7885127581         199932.8388         2.6     3.0
    62             0.9112319472       24.7958844759         199992.2957         1.5     0.0
    29             0.9206353384       25.0517637857         202056.1015         1.0     1.0
    41             0.9206353384       25.0517637857         202056.1015         1.0     1.0
    45             0.9286300865       25.2693119624         203810.7459         2.3     2.0
     6             0.9286300865       25.2693119624         203810.7459         2.3     2.0
     7             0.9307586333       25.3272326729         204277.9079         1.5     0.0
    22             0.9403919500       25.5893685728         206392.1766         1.0     1.0
    34             0.9403919500       25.5893685728         206392.1766         1.0     1.0
     8             0.9685092483       26.3544792394         212563.2103         0.8     0.0
    97             0.9869027180       26.8549910461         216600.1102         0.6     0.0
    23             0.9989449891       27.1826779376         219243.0832         2.6     3.0
    35             0.9989449891       27.1826779376         219243.0832         2.6     3.0
    57             1.0162035222       27.6523065470         223030.8934         1.8     2.0
    91             1.0162035222       27.6523065470         223030.8934         1.8     2.0
    52             1.0206827638       27.7741929217         224013.9733         2.0     2.0
    15             1.0206827638       27.7741929217         224013.9733         2.0     2.0
    53             1.0242000930       27.8699043231         224785.9378         1.1     0.0
    46             1.0728132238       29.1927350027         235455.2868         0.4     0.0
    63             1.0929365165       29.7403176941         239871.8391         0.7     0.0
    47             1.1374505811       30.9516070976         249641.5470         1.3     0.0
    98             1.1586214251       31.5276951115         254288.0102         0.6     0.0
     9             1.1588316926       31.5334167821         254334.1586         0.9     0.0
    10             1.1823317278       32.1728853168         259491.8201         0.9     0.0
    18             1.2149656437       33.0608994067         266654.1368         0.5     0.0
    92             1.2176307043       33.1334193999         267239.0500         0.6     0.0
    11             1.3142941963       35.7637670163         288454.2342         0.6     0.0
    12             1.3531066724       36.8199082960         296972.5881         0.5     0.0

++ Dipole transition strengths (spin-free states):
   -----------------------------------------------
     for osc. strength at least  1.00000000E-05

      From   To        Osc. strength     Einstein coefficients Ax, Ay, Az (sec-1)    Total A (sec-1)
     -----------------------------------------------------------------------------------------------
        48   94       1.15929114E-01  0.00000000E+00  0.00000000E+00  4.45439997E+08  4.45439997E+08
        48   24       7.06731810E-04  0.00000000E+00  4.00409036E+06  0.00000000E+00  4.00409036E+06
        48   36       7.06731810E-04  4.00409036E+06  0.00000000E+00  0.00000000E+00  4.00409036E+06
        48   25       3.56528854E-02  0.00000000E+00  3.33354626E+08  0.00000000E+00  3.33354626E+08
        48   37       3.56528854E-02  3.33354626E+08  0.00000000E+00  0.00000000E+00  3.33354626E+08
        48   38       1.25357804E-01  1.73262453E+09  0.00000000E+00  0.00000000E+00  1.73262453E+09
        48   26       1.25357804E-01  0.00000000E+00  1.73262453E+09  0.00000000E+00  1.73262453E+09
        48   96       3.88162173E-03  0.00000000E+00  0.00000000E+00  6.22512838E+07  6.22512838E+07
        48   39       3.83977646E-04  9.40113123E+06  0.00000000E+00  0.00000000E+00  9.40113123E+06
        48   27       3.83977646E-04  0.00000000E+00  9.40113123E+06  0.00000000E+00  9.40113123E+06
        48   29       7.74788946E-04  0.00000000E+00  2.10993745E+07  0.00000000E+00  2.10993745E+07
        48   41       7.74788946E-04  2.10993745E+07  0.00000000E+00  0.00000000E+00  2.10993745E+07
        48   97       1.18572785E+00  0.00000000E+00  0.00000000E+00  3.71060387E+10  3.71060387E+10
         1   55       1.00736252E-01  0.00000000E+00  0.00000000E+00  5.15275865E+08  5.15275865E+08
         1   31       1.52274015E-03  0.00000000E+00  9.90957581E+06  0.00000000E+00  9.90957581E+06
         1   19       1.52274015E-03  9.90957581E+06  0.00000000E+00  0.00000000E+00  9.90957581E+06
         1   32       4.33154561E-02  0.00000000E+00  4.01957078E+08  0.00000000E+00  4.01957078E+08
         1   20       4.33154561E-02  4.01957078E+08  0.00000000E+00  0.00000000E+00  4.01957078E+08
         1   33       1.35488624E-01  0.00000000E+00  2.67696585E+09  0.00000000E+00  2.67696585E+09
         1   21       1.35488624E-01  2.67696585E+09  0.00000000E+00  0.00000000E+00  2.67696585E+09
         1   22       9.40681802E-04  2.48026078E+07  0.00000000E+00  0.00000000E+00  2.48026078E+07
         1   34       9.40681802E-04  0.00000000E+00  2.48026078E+07  0.00000000E+00  2.48026078E+07
         1   23       2.00111525E-04  5.98038821E+06  0.00000000E+00  0.00000000E+00  5.98038821E+06
         1   35       2.00111525E-04  0.00000000E+00  5.98038821E+06  0.00000000E+00  5.98038821E+06
         1   57       1.17705964E+00  0.00000000E+00  0.00000000E+00  3.64469901E+10  3.64469901E+10
        43   89       1.00736252E-01  0.00000000E+00  0.00000000E+00  5.15275865E+08  5.15275865E+08
        43   31       1.52274015E-03  9.90957581E+06  0.00000000E+00  0.00000000E+00  9.90957581E+06
        43   19       1.52274015E-03  0.00000000E+00  9.90957581E+06  0.00000000E+00  9.90957581E+06
        43   32       4.33154561E-02  4.01957078E+08  0.00000000E+00  0.00000000E+00  4.01957078E+08
        43   20       4.33154561E-02  0.00000000E+00  4.01957078E+08  0.00000000E+00  4.01957078E+08
        43   33       1.35488624E-01  2.67696585E+09  0.00000000E+00  0.00000000E+00  2.67696585E+09
        43   21       1.35488624E-01  0.00000000E+00  2.67696585E+09  0.00000000E+00  2.67696585E+09
        43   22       9.40681802E-04  0.00000000E+00  2.48026078E+07  0.00000000E+00  2.48026078E+07
        43   34       9.40681802E-04  2.48026078E+07  0.00000000E+00  0.00000000E+00  2.48026078E+07
        43   23       2.00111525E-04  0.00000000E+00  5.98038821E+06  0.00000000E+00  5.98038821E+06
        43   35       2.00111525E-04  5.98038821E+06  0.00000000E+00  0.00000000E+00  5.98038821E+06
        43   91       1.17705964E+00  0.00000000E+00  0.00000000E+00  3.64469901E+10  3.64469901E+10
         2   56       9.56174780E-02  0.00000000E+00  0.00000000E+00  5.66998517E+08  5.66998517E+08
         2   31       1.23929449E-02  0.00000000E+00  7.40151758E+07  0.00000000E+00  7.40151758E+07
         2   19       1.23929449E-02  7.40151758E+07  0.00000000E+00  0.00000000E+00  7.40151758E+07
         2   32       3.40149565E-02  0.00000000E+00  2.93829202E+08  0.00000000E+00  2.93829202E+08
         2   20       3.40149565E-02  2.93829202E+08  0.00000000E+00  0.00000000E+00  2.93829202E+08
         2   33       9.49828209E-02  0.00000000E+00  1.78724463E+09  0.00000000E+00  1.78724463E+09
         2   21       9.49828209E-02  1.78724463E+09  0.00000000E+00  0.00000000E+00  1.78724463E+09
         2   22       1.79643742E-03  4.54092419E+07  0.00000000E+00  0.00000000E+00  4.54092419E+07
         2   34       1.79643742E-03  0.00000000E+00  4.54092419E+07  0.00000000E+00  4.54092419E+07
        88   76       5.28629008E-03  4.02308266E+06  0.00000000E+00  0.00000000E+00  4.02308266E+06
        88   64       5.28629008E-03  0.00000000E+00  4.02308266E+06  0.00000000E+00  4.02308266E+06
        88   65       3.41774402E-03  0.00000000E+00  2.38079168E+07  0.00000000E+00  2.38079168E+07
        88   77       3.41774402E-03  2.38079168E+07  0.00000000E+00  0.00000000E+00  2.38079168E+07
        88   79       4.32968843E-03  4.40537794E+07  0.00000000E+00  0.00000000E+00  4.40537794E+07
        88   67       4.32968843E-03  0.00000000E+00  4.40537794E+07  0.00000000E+00  4.40537794E+07
        88   80       4.44047077E-02  7.28537357E+08  0.00000000E+00  0.00000000E+00  7.28537357E+08
        88   68       4.44047077E-02  0.00000000E+00  7.28537357E+08  0.00000000E+00  7.28537357E+08
        88   46       1.27129465E-01  0.00000000E+00  0.00000000E+00  3.15296561E+09  3.15296561E+09
        88   47       7.80164584E-01  0.00000000E+00  0.00000000E+00  2.23007886E+10  2.23007886E+10
        58   81       2.54132713E-03  0.00000000E+00  7.42454180E+05  0.00000000E+00  7.42454180E+05
        58   69       2.54132713E-03  7.42454180E+05  0.00000000E+00  0.00000000E+00  7.42454180E+05
        58   82       3.12144529E-04  0.00000000E+00  1.66242672E+06  0.00000000E+00  1.66242672E+06
        58   70       3.12144529E-04  1.66242672E+06  0.00000000E+00  0.00000000E+00  1.66242672E+06
        58   83       1.58247379E-03  0.00000000E+00  1.03982432E+07  0.00000000E+00  1.03982432E+07
        58   71       1.58247379E-03  1.03982432E+07  0.00000000E+00  0.00000000E+00  1.03982432E+07
        58   72       3.13568004E-03  2.12633442E+07  0.00000000E+00  0.00000000E+00  2.12633442E+07
        58   84       3.13568004E-03  0.00000000E+00  2.12633442E+07  0.00000000E+00  2.12633442E+07
        58   73       1.59568648E-03  1.20234575E+07  0.00000000E+00  0.00000000E+00  1.20234575E+07
        58   85       1.59568648E-03  0.00000000E+00  1.20234575E+07  0.00000000E+00  1.20234575E+07
        58   74       2.65722955E-03  3.78183247E+07  0.00000000E+00  0.00000000E+00  3.78183247E+07
        58   86       2.65722955E-03  0.00000000E+00  3.78183247E+07  0.00000000E+00  3.78183247E+07
        58   13       4.83819657E-03  0.00000000E+00  0.00000000E+00  7.00091147E+07  7.00091147E+07
        58   15       2.87555043E-02  0.00000000E+00  0.00000000E+00  6.18569135E+08  6.18569135E+08
        93   81       2.54132713E-03  7.42454180E+05  0.00000000E+00  0.00000000E+00  7.42454180E+05
        93   69       2.54132713E-03  0.00000000E+00  7.42454180E+05  0.00000000E+00  7.42454180E+05
        93   82       3.12144529E-04  1.66242672E+06  0.00000000E+00  0.00000000E+00  1.66242672E+06
        93   70       3.12144529E-04  0.00000000E+00  1.66242672E+06  0.00000000E+00  1.66242672E+06
        93   83       1.58247379E-03  1.03982432E+07  0.00000000E+00  0.00000000E+00  1.03982432E+07
        93   71       1.58247379E-03  0.00000000E+00  1.03982432E+07  0.00000000E+00  1.03982432E+07
        93   72       3.13568004E-03  0.00000000E+00  2.12633442E+07  0.00000000E+00  2.12633442E+07
        93   84       3.13568004E-03  2.12633442E+07  0.00000000E+00  0.00000000E+00  2.12633442E+07
        93   73       1.59568648E-03  0.00000000E+00  1.20234575E+07  0.00000000E+00  1.20234575E+07
        93   85       1.59568648E-03  1.20234575E+07  0.00000000E+00  0.00000000E+00  1.20234575E+07
        93   74       2.65722955E-03  0.00000000E+00  3.78183247E+07  0.00000000E+00  3.78183247E+07
        93   86       2.65722955E-03  3.78183247E+07  0.00000000E+00  0.00000000E+00  3.78183247E+07
        93   51       4.83819657E-03  0.00000000E+00  0.00000000E+00  7.00091147E+07  7.00091147E+07
        93   52       2.87555043E-02  0.00000000E+00  0.00000000E+00  6.18569135E+08  6.18569135E+08
        59   81       2.46517674E-03  0.00000000E+00  6.56597531E+05  0.00000000E+00  6.56597531E+05
        59   69       2.46517674E-03  6.56597531E+05  0.00000000E+00  0.00000000E+00  6.56597531E+05
        59   82       2.39449635E-03  0.00000000E+00  1.24841964E+07  0.00000000E+00  1.24841964E+07
        59   70       2.39449635E-03  1.24841964E+07  0.00000000E+00  0.00000000E+00  1.24841964E+07
        59   72       5.32294358E-03  3.54215549E+07  0.00000000E+00  0.00000000E+00  3.54215549E+07
        59   84       5.32294358E-03  0.00000000E+00  3.54215549E+07  0.00000000E+00  3.54215549E+07
        59   73       6.04594619E-05  4.47490788E+05  0.00000000E+00  0.00000000E+00  4.47490788E+05
        59   85       6.04594619E-05  0.00000000E+00  4.47490788E+05  0.00000000E+00  4.47490788E+05
        59   74       3.05039541E-03  4.28537136E+07  0.00000000E+00  0.00000000E+00  4.28537136E+07
        59   86       3.05039541E-03  0.00000000E+00  4.28537136E+07  0.00000000E+00  4.28537136E+07
        59   14       4.47291926E-03  0.00000000E+00  0.00000000E+00  6.47774859E+07  6.47774859E+07
        81   94       2.48184709E-04  1.83805597E+04  0.00000000E+00  0.00000000E+00  1.83805597E+04
        81   36       3.42289164E-04  0.00000000E+00  0.00000000E+00  1.64009483E+05  1.64009483E+05
        81   37       6.76539594E-03  0.00000000E+00  0.00000000E+00  1.26929025E+07  1.26929025E+07
        81   38       2.40463888E-01  0.00000000E+00  0.00000000E+00  9.90603250E+08  9.90603250E+08
        81   95       1.79744935E-03  8.30817465E+06  0.00000000E+00  0.00000000E+00  8.30817465E+06
        81   60       1.79744935E-03  0.00000000E+00  8.30817465E+06  0.00000000E+00  8.30817465E+06
        81   96       6.19996087E-03  3.32736888E+07  0.00000000E+00  0.00000000E+00  3.32736888E+07
        81   39       1.20852975E-03  0.00000000E+00  0.00000000E+00  1.28440318E+07  1.28440318E+07
        81   62       1.75344446E-01  0.00000000E+00  2.11997322E+09  0.00000000E+00  2.11997322E+09
        81   41       9.87107511E-05  0.00000000E+00  0.00000000E+00  1.23031582E+06  1.23031582E+06
        81   97       3.67618528E-03  5.60881969E+07  0.00000000E+00  0.00000000E+00  5.60881969E+07
        81   98       1.32591583E-05  3.15681545E+05  0.00000000E+00  0.00000000E+00  3.15681545E+05
        69   94       2.48184709E-04  0.00000000E+00  1.83805597E+04  0.00000000E+00  1.83805597E+04
        69   24       3.42289164E-04  0.00000000E+00  0.00000000E+00  1.64009483E+05  1.64009483E+05
        69   25       6.76539594E-03  0.00000000E+00  0.00000000E+00  1.26929025E+07  1.26929025E+07
        69   26       2.40463888E-01  0.00000000E+00  0.00000000E+00  9.90603250E+08  9.90603250E+08
        69   95       1.79744935E-03  0.00000000E+00  8.30817465E+06  0.00000000E+00  8.30817465E+06
        69   60       1.79744935E-03  8.30817465E+06  0.00000000E+00  0.00000000E+00  8.30817465E+06
        69   96       6.19996087E-03  0.00000000E+00  3.32736888E+07  0.00000000E+00  3.32736888E+07
        69   27       1.20852975E-03  0.00000000E+00  0.00000000E+00  1.28440318E+07  1.28440318E+07
        69   62       1.75344446E-01  2.11997322E+09  0.00000000E+00  0.00000000E+00  2.11997322E+09
        69   29       9.87107511E-05  0.00000000E+00  0.00000000E+00  1.23031582E+06  1.23031582E+06
        69   97       3.67618528E-03  0.00000000E+00  5.60881969E+07  0.00000000E+00  5.60881969E+07
        69   98       1.32591583E-05  0.00000000E+00  3.15681545E+05  0.00000000E+00  3.15681545E+05
        94   49       1.51010631E-01  0.00000000E+00  0.00000000E+00  2.06168540E+08  2.06168540E+08
        94   82       6.99864230E-05  1.56447340E+05  0.00000000E+00  0.00000000E+00  1.56447340E+05
        94   70       6.99864230E-05  0.00000000E+00  1.56447340E+05  0.00000000E+00  1.56447340E+05
        94   72       4.37807372E-04  0.00000000E+00  1.40497828E+06  0.00000000E+00  1.40497828E+06
        94   84       4.37807372E-04  1.40497828E+06  0.00000000E+00  0.00000000E+00  1.40497828E+06
        94   73       3.14492431E-05  0.00000000E+00  1.17429543E+05  0.00000000E+00  1.17429543E+05
        94   85       3.14492431E-05  1.17429543E+05  0.00000000E+00  0.00000000E+00  1.17429543E+05
        94   50       4.72203693E-04  0.00000000E+00  0.00000000E+00  3.33059035E+06  3.33059035E+06
        94   74       1.75678577E-04  0.00000000E+00  1.53913520E+06  0.00000000E+00  1.53913520E+06
        94   86       1.75678577E-04  1.53913520E+06  0.00000000E+00  0.00000000E+00  1.53913520E+06
        94   53       1.68416913E-03  0.00000000E+00  0.00000000E+00  2.49029110E+07  2.49029110E+07
        76   89       1.60151297E-04  3.75026670E+04  0.00000000E+00  0.00000000E+00  3.75026670E+04
        76   55       1.60151297E-04  0.00000000E+00  3.75026670E+04  0.00000000E+00  3.75026670E+04
        76   56       3.46171816E-05  0.00000000E+00  2.02358840E+04  0.00000000E+00  2.02358840E+04
        76   31       7.67933996E-05  0.00000000E+00  0.00000000E+00  4.59192386E+04  4.59192386E+04
        76   32       8.96049323E-03  0.00000000E+00  0.00000000E+00  1.44187836E+07  1.44187836E+07
        76   90       9.19687413E-03  5.09572681E+07  0.00000000E+00  0.00000000E+00  5.09572681E+07
        76   33       2.40627737E-01  0.00000000E+00  0.00000000E+00  1.71185995E+09  1.71185995E+09
        76   34       3.04554382E-03  0.00000000E+00  0.00000000E+00  3.43235960E+07  3.43235960E+07
        76   57       2.52733774E-03  0.00000000E+00  3.62420931E+07  0.00000000E+00  3.62420931E+07
        76   91       2.52733774E-03  3.62420931E+07  0.00000000E+00  0.00000000E+00  3.62420931E+07
        76   92       1.18014841E-04  2.86668618E+06  0.00000000E+00  0.00000000E+00  2.86668618E+06
        64   89       1.60151297E-04  0.00000000E+00  3.75026670E+04  0.00000000E+00  3.75026670E+04
        64   55       1.60151297E-04  3.75026670E+04  0.00000000E+00  0.00000000E+00  3.75026670E+04
        64   56       3.46171816E-05  2.02358840E+04  0.00000000E+00  0.00000000E+00  2.02358840E+04
        64   19       7.67933996E-05  0.00000000E+00  0.00000000E+00  4.59192386E+04  4.59192386E+04
        64   20       8.96049323E-03  0.00000000E+00  0.00000000E+00  1.44187836E+07  1.44187836E+07
        64   90       9.19687413E-03  0.00000000E+00  5.09572681E+07  0.00000000E+00  5.09572681E+07
        64   21       2.40627737E-01  0.00000000E+00  0.00000000E+00  1.71185995E+09  1.71185995E+09
        64   22       3.04554382E-03  0.00000000E+00  0.00000000E+00  3.43235960E+07  3.43235960E+07
        64   57       2.52733774E-03  3.62420931E+07  0.00000000E+00  0.00000000E+00  3.62420931E+07
        64   91       2.52733774E-03  0.00000000E+00  3.62420931E+07  0.00000000E+00  3.62420931E+07
        64   92       1.18014841E-04  0.00000000E+00  2.86668618E+06  0.00000000E+00  2.86668618E+06
        24   49       2.88303081E-05  0.00000000E+00  1.61467366E+04  0.00000000E+00  1.61467366E+04
        24   70       4.53079860E-03  0.00000000E+00  0.00000000E+00  5.23642578E+06  5.23642578E+06
        24   72       4.64747429E-05  0.00000000E+00  0.00000000E+00  8.73982093E+04  8.73982093E+04
        24   73       1.08194271E-03  0.00000000E+00  0.00000000E+00  2.47435967E+06  2.47435967E+06
        24   50       2.77803972E-03  0.00000000E+00  1.38860372E+07  0.00000000E+00  1.38860372E+07
        24   74       2.29308236E-01  0.00000000E+00  0.00000000E+00  1.47922197E+09  1.47922197E+09
        24   51       2.13702582E-03  0.00000000E+00  1.41284152E+07  0.00000000E+00  1.41284152E+07
        24   13       2.13702582E-03  1.41284152E+07  0.00000000E+00  0.00000000E+00  1.41284152E+07
        24   14       7.34166522E-04  4.95244112E+06  0.00000000E+00  0.00000000E+00  4.95244112E+06
        24   52       4.88883250E-02  0.00000000E+00  5.66915590E+08  0.00000000E+00  5.66915590E+08
        24   15       4.88883250E-02  5.66915590E+08  0.00000000E+00  0.00000000E+00  5.66915590E+08
        24   53       4.72350325E-02  0.00000000E+00  5.54176421E+08  0.00000000E+00  5.54176421E+08
        36   49       2.88303081E-05  1.61467366E+04  0.00000000E+00  0.00000000E+00  1.61467366E+04
        36   82       4.53079860E-03  0.00000000E+00  0.00000000E+00  5.23642578E+06  5.23642578E+06
        36   84       4.64747429E-05  0.00000000E+00  0.00000000E+00  8.73982093E+04  8.73982093E+04
        36   85       1.08194271E-03  0.00000000E+00  0.00000000E+00  2.47435967E+06  2.47435967E+06
        36   50       2.77803972E-03  1.38860372E+07  0.00000000E+00  0.00000000E+00  1.38860372E+07
        36   86       2.29308236E-01  0.00000000E+00  0.00000000E+00  1.47922197E+09  1.47922197E+09
        36   51       2.13702582E-03  1.41284152E+07  0.00000000E+00  0.00000000E+00  1.41284152E+07
        36   13       2.13702582E-03  0.00000000E+00  1.41284152E+07  0.00000000E+00  1.41284152E+07
        36   14       7.34166522E-04  0.00000000E+00  4.95244112E+06  0.00000000E+00  4.95244112E+06
        36   52       4.88883250E-02  5.66915590E+08  0.00000000E+00  0.00000000E+00  5.66915590E+08
        36   15       4.88883250E-02  0.00000000E+00  5.66915590E+08  0.00000000E+00  5.66915590E+08
        36   53       4.72350325E-02  5.54176421E+08  0.00000000E+00  0.00000000E+00  5.54176421E+08
        89   44       1.43684803E-01  0.00000000E+00  0.00000000E+00  1.47138211E+08  1.47138211E+08
        89   78       4.64599077E-04  1.26894933E+06  0.00000000E+00  0.00000000E+00  1.26894933E+06
        89   66       4.64599077E-04  0.00000000E+00  1.26894933E+06  0.00000000E+00  1.26894933E+06
        89   80       4.94133264E-03  3.58687272E+07  0.00000000E+00  0.00000000E+00  3.58687272E+07
        89   68       4.94133264E-03  0.00000000E+00  3.58687272E+07  0.00000000E+00  3.58687272E+07
        89   45       4.07803418E-04  0.00000000E+00  0.00000000E+00  3.21207672E+06  3.21207672E+06
        55    3       1.43684803E-01  0.00000000E+00  0.00000000E+00  1.47138211E+08  1.47138211E+08
        55   78       4.64599077E-04  0.00000000E+00  1.26894933E+06  0.00000000E+00  1.26894933E+06
        55   66       4.64599077E-04  1.26894933E+06  0.00000000E+00  0.00000000E+00  1.26894933E+06
        55   80       4.94133264E-03  0.00000000E+00  3.58687272E+07  0.00000000E+00  3.58687272E+07
        55   68       4.94133264E-03  3.58687272E+07  0.00000000E+00  0.00000000E+00  3.58687272E+07
        55    6       4.07803418E-04  0.00000000E+00  0.00000000E+00  3.21207672E+06  3.21207672E+06
        55    9       1.01760616E-01  0.00000000E+00  0.00000000E+00  1.72010138E+09  1.72010138E+09
        56    4       5.50486865E-02  0.00000000E+00  0.00000000E+00  3.30689856E+07  3.30689856E+07
        56    5       7.94943760E-02  0.00000000E+00  0.00000000E+00  8.23884467E+07  8.23884467E+07
        56   79       1.57527006E-04  0.00000000E+00  3.79854403E+05  0.00000000E+00  3.79854403E+05
        56   67       1.57527006E-04  3.79854403E+05  0.00000000E+00  0.00000000E+00  3.79854403E+05
        56   80       1.32498243E-03  0.00000000E+00  7.71852880E+06  0.00000000E+00  7.71852880E+06
        56   68       1.32498243E-03  7.71852880E+06  0.00000000E+00  0.00000000E+00  7.71852880E+06
        56    7       1.50112597E-04  0.00000000E+00  0.00000000E+00  9.66885705E+05  9.66885705E+05
        56    8       1.45730179E-03  0.00000000E+00  0.00000000E+00  1.10361540E+07  1.10361540E+07
        56   10       8.83432482E-02  0.00000000E+00  0.00000000E+00  1.38811221E+09  1.38811221E+09
        56   11       6.92243571E-04  0.00000000E+00  0.00000000E+00  1.53694146E+07  1.53694146E+07
        56   12       3.19548173E-02  0.00000000E+00  0.00000000E+00  7.77268763E+08  7.77268763E+08
        31   77       5.77458688E-03  0.00000000E+00  0.00000000E+00  5.70158727E+06  5.70158727E+06
        31    5       3.45828219E-04  0.00000000E+00  3.52310908E+05  0.00000000E+00  3.52310908E+05
        31   79       8.59118374E-04  0.00000000E+00  0.00000000E+00  2.04846665E+06  2.04846665E+06
        31   80       1.45144466E-01  0.00000000E+00  0.00000000E+00  8.39429676E+08  8.39429676E+08
        31   45       3.47850053E-03  2.20399306E+07  0.00000000E+00  0.00000000E+00  2.20399306E+07
        31    6       3.47850053E-03  0.00000000E+00  2.20399306E+07  0.00000000E+00  2.20399306E+07
        31    7       5.51280298E-04  0.00000000E+00  3.52650118E+06  0.00000000E+00  3.52650118E+06
        31    8       4.89427777E-03  0.00000000E+00  3.68301099E+07  0.00000000E+00  3.68301099E+07
        31   46       9.56914891E-02  1.06393726E+09  0.00000000E+00  0.00000000E+00  1.06393726E+09
        31   47       8.05782095E-04  1.10360123E+07  0.00000000E+00  0.00000000E+00  1.10360123E+07
        31    9       7.53518500E-02  0.00000000E+00  1.10072148E+09  0.00000000E+00  1.10072148E+09
        31   10       1.02626762E-01  0.00000000E+00  1.60546535E+09  0.00000000E+00  1.60546535E+09
        31   11       2.95381944E-03  0.00000000E+00  6.53393889E+07  0.00000000E+00  6.53393889E+07
        31   12       1.10101298E-05  0.00000000E+00  2.66865114E+05  0.00000000E+00  2.66865114E+05
        19   65       5.77458688E-03  0.00000000E+00  0.00000000E+00  5.70158727E+06  5.70158727E+06
        19    5       3.45828219E-04  3.52310908E+05  0.00000000E+00  0.00000000E+00  3.52310908E+05
        19   67       8.59118374E-04  0.00000000E+00  0.00000000E+00  2.04846665E+06  2.04846665E+06
        19   68       1.45144466E-01  0.00000000E+00  0.00000000E+00  8.39429676E+08  8.39429676E+08
        19   45       3.47850053E-03  0.00000000E+00  2.20399306E+07  0.00000000E+00  2.20399306E+07
        19    6       3.47850053E-03  2.20399306E+07  0.00000000E+00  0.00000000E+00  2.20399306E+07
        19    7       5.51280298E-04  3.52650118E+06  0.00000000E+00  0.00000000E+00  3.52650118E+06
        19    8       4.89427777E-03  3.68301099E+07  0.00000000E+00  0.00000000E+00  3.68301099E+07
        19   46       9.56914891E-02  0.00000000E+00  1.06393726E+09  0.00000000E+00  1.06393726E+09
        19   47       8.05782095E-04  0.00000000E+00  1.10360123E+07  0.00000000E+00  1.10360123E+07
        19    9       7.53518500E-02  1.10072148E+09  0.00000000E+00  0.00000000E+00  1.10072148E+09
        19   10       1.02626762E-01  1.60546535E+09  0.00000000E+00  0.00000000E+00  1.60546535E+09
        19   11       2.95381944E-03  6.53393889E+07  0.00000000E+00  0.00000000E+00  6.53393889E+07
        19   12       1.10101298E-05  2.66865114E+05  0.00000000E+00  0.00000000E+00  2.66865114E+05
        87   99       1.73984727E-03  1.56945109E+05  0.00000000E+00  0.00000000E+00  1.56945109E+05
        87   42       1.22869624E-01  0.00000000E+00  0.00000000E+00  2.94048642E+08  2.94048642E+08
        75   99       1.73984727E-03  0.00000000E+00  1.56945109E+05  0.00000000E+00  1.56945109E+05
        75   30       1.22869624E-01  0.00000000E+00  0.00000000E+00  2.94048642E+08  2.94048642E+08
        25   49       1.95715941E-04  0.00000000E+00  9.82603341E+02  0.00000000E+00  9.82603341E+02
        25   70       6.14764604E-05  0.00000000E+00  0.00000000E+00  9.71547771E+03  9.71547771E+03
        25   72       2.91611693E-05  0.00000000E+00  0.00000000E+00  1.40376241E+04  1.40376241E+04
        25   73       9.14165666E-04  0.00000000E+00  0.00000000E+00  6.37002659E+05  6.37002659E+05
        25   50       3.33227368E-04  0.00000000E+00  8.09088973E+05  0.00000000E+00  8.09088973E+05
        25   74       1.89207908E-05  0.00000000E+00  0.00000000E+00  6.56222144E+04  6.56222144E+04
        25   51       9.92046770E-04  0.00000000E+00  3.55764980E+06  0.00000000E+00  3.55764980E+06
        25   13       9.92046770E-04  3.55764980E+06  0.00000000E+00  0.00000000E+00  3.55764980E+06
        25   14       7.87670150E-04  2.90283634E+06  0.00000000E+00  0.00000000E+00  2.90283634E+06
        25   52       4.26983212E-03  0.00000000E+00  3.17712068E+07  0.00000000E+00  3.17712068E+07
        25   15       4.26983212E-03  3.17712068E+07  0.00000000E+00  0.00000000E+00  3.17712068E+07
        25   53       8.77585045E-03  0.00000000E+00  6.62578806E+07  0.00000000E+00  6.62578806E+07
        37   49       1.95715941E-04  9.82603341E+02  0.00000000E+00  0.00000000E+00  9.82603341E+02
        37   82       6.14764604E-05  0.00000000E+00  0.00000000E+00  9.71547771E+03  9.71547771E+03
        37   84       2.91611693E-05  0.00000000E+00  0.00000000E+00  1.40376241E+04  1.40376241E+04
        37   85       9.14165666E-04  0.00000000E+00  0.00000000E+00  6.37002659E+05  6.37002659E+05
        37   50       3.33227368E-04  8.09088973E+05  0.00000000E+00  0.00000000E+00  8.09088973E+05
        37   86       1.89207908E-05  0.00000000E+00  0.00000000E+00  6.56222144E+04  6.56222144E+04
        37   51       9.92046770E-04  3.55764980E+06  0.00000000E+00  0.00000000E+00  3.55764980E+06
        37   13       9.92046770E-04  0.00000000E+00  3.55764980E+06  0.00000000E+00  3.55764980E+06
        37   14       7.87670150E-04  0.00000000E+00  2.90283634E+06  0.00000000E+00  2.90283634E+06
        37   52       4.26983212E-03  3.17712068E+07  0.00000000E+00  0.00000000E+00  3.17712068E+07
        37   15       4.26983212E-03  0.00000000E+00  3.17712068E+07  0.00000000E+00  3.17712068E+07
        37   53       8.77585045E-03  6.62578806E+07  0.00000000E+00  0.00000000E+00  6.62578806E+07
        49   38       9.29685615E-04  3.22620879E+05  0.00000000E+00  0.00000000E+00  3.22620879E+05
        49   26       9.29685615E-04  0.00000000E+00  3.22620879E+05  0.00000000E+00  3.22620879E+05
        49   39       1.84441005E-04  6.10573666E+05  0.00000000E+00  0.00000000E+00  6.10573666E+05
        49   27       1.84441005E-04  0.00000000E+00  6.10573666E+05  0.00000000E+00  6.10573666E+05
        49   29       2.18449983E-03  0.00000000E+00  9.54060849E+06  0.00000000E+00  9.54060849E+06
        49   41       2.18449983E-03  9.54060849E+06  0.00000000E+00  0.00000000E+00  9.54060849E+06
        49   97       3.27970308E-05  0.00000000E+00  0.00000000E+00  1.99356651E+05  1.99356651E+05
        32   44       7.40998829E-04  3.82954811E+04  0.00000000E+00  0.00000000E+00  3.82954811E+04
        32    3       7.40998829E-04  0.00000000E+00  3.82954811E+04  0.00000000E+00  3.82954811E+04
        32    4       1.47199448E-04  0.00000000E+00  1.08189604E+04  0.00000000E+00  1.08189604E+04
        32   77       3.90252158E-04  0.00000000E+00  0.00000000E+00  9.69449415E+04  9.69449415E+04
        32    5       6.52932552E-03  0.00000000E+00  1.72558349E+06  0.00000000E+00  1.72558349E+06
        32   79       2.49866268E-03  0.00000000E+00  0.00000000E+00  2.74900164E+06  2.74900164E+06
        32   80       1.16186566E-02  0.00000000E+00  0.00000000E+00  4.23694343E+07  4.23694343E+07
        32   45       2.12067364E-03  8.66952021E+06  0.00000000E+00  0.00000000E+00  8.66952021E+06
        32    6       2.12067364E-03  0.00000000E+00  8.66952021E+06  0.00000000E+00  8.66952021E+06
        32    7       8.40004315E-04  0.00000000E+00  3.47512533E+06  0.00000000E+00  3.47512533E+06
        32    8       2.50947479E-04  0.00000000E+00  1.26811083E+06  0.00000000E+00  1.26811083E+06
        32   46       1.71903316E-02  1.38570536E+08  0.00000000E+00  0.00000000E+00  1.38570536E+08
        32   47       1.88756299E-04  1.93959759E+06  0.00000000E+00  0.00000000E+00  1.93959759E+06
        32    9       1.91142590E-04  0.00000000E+00  2.11544360E+06  0.00000000E+00  2.11544360E+06
        32   10       3.59659644E-04  0.00000000E+00  4.30562685E+06  0.00000000E+00  4.30562685E+06
        32   12       1.78258565E-01  0.00000000E+00  3.49511610E+09  0.00000000E+00  3.49511610E+09
        20   44       7.40998829E-04  0.00000000E+00  3.82954811E+04  0.00000000E+00  3.82954811E+04
        20    3       7.40998829E-04  3.82954811E+04  0.00000000E+00  0.00000000E+00  3.82954811E+04
        20    4       1.47199448E-04  1.08189604E+04  0.00000000E+00  0.00000000E+00  1.08189604E+04
        20   65       3.90252158E-04  0.00000000E+00  0.00000000E+00  9.69449415E+04  9.69449415E+04
        20    5       6.52932552E-03  1.72558349E+06  0.00000000E+00  0.00000000E+00  1.72558349E+06
        20   67       2.49866268E-03  0.00000000E+00  0.00000000E+00  2.74900164E+06  2.74900164E+06
        20   68       1.16186566E-02  0.00000000E+00  0.00000000E+00  4.23694343E+07  4.23694343E+07
        20   45       2.12067364E-03  0.00000000E+00  8.66952021E+06  0.00000000E+00  8.66952021E+06
        20    6       2.12067364E-03  8.66952021E+06  0.00000000E+00  0.00000000E+00  8.66952021E+06
        20    7       8.40004315E-04  3.47512533E+06  0.00000000E+00  0.00000000E+00  3.47512533E+06
        20    8       2.50947479E-04  1.26811083E+06  0.00000000E+00  0.00000000E+00  1.26811083E+06
        20   46       1.71903316E-02  0.00000000E+00  1.38570536E+08  0.00000000E+00  1.38570536E+08
        20   47       1.88756299E-04  0.00000000E+00  1.93959759E+06  0.00000000E+00  1.93959759E+06
        20    9       1.91142590E-04  2.11544360E+06  0.00000000E+00  0.00000000E+00  2.11544360E+06
        20   10       3.59659644E-04  4.30562685E+06  0.00000000E+00  0.00000000E+00  4.30562685E+06
        20   12       1.78258565E-01  3.49511610E+09  0.00000000E+00  0.00000000E+00  3.49511610E+09
        82   38       1.75967073E-05  0.00000000E+00  0.00000000E+00  1.21163735E+03  1.21163735E+03
        82   95       5.77782179E-04  8.46070531E+04  0.00000000E+00  0.00000000E+00  8.46070531E+04
        82   60       5.77782179E-04  0.00000000E+00  8.46070531E+04  0.00000000E+00  8.46070531E+04
        82   61       2.62352160E-04  0.00000000E+00  5.68219610E+04  0.00000000E+00  5.68219610E+04
        82   96       6.80259348E-04  2.05301917E+05  0.00000000E+00  0.00000000E+00  2.05301917E+05
        82   39       8.90011096E-02  0.00000000E+00  0.00000000E+00  1.98326588E+08  1.98326588E+08
        82   41       1.82644311E-02  0.00000000E+00  0.00000000E+00  5.67788542E+07  5.67788542E+07
        82   97       8.70001553E-04  3.97971615E+06  0.00000000E+00  0.00000000E+00  3.97971615E+06
        82   63       2.68735848E-03  0.00000000E+00  2.01728824E+07  0.00000000E+00  2.01728824E+07
        82   98       1.97817636E-05  1.91594426E+05  0.00000000E+00  0.00000000E+00  1.91594426E+05
        70   26       1.75967073E-05  0.00000000E+00  0.00000000E+00  1.21163735E+03  1.21163735E+03
        70   95       5.77782179E-04  0.00000000E+00  8.46070531E+04  0.00000000E+00  8.46070531E+04
        70   60       5.77782179E-04  8.46070531E+04  0.00000000E+00  0.00000000E+00  8.46070531E+04
        70   61       2.62352160E-04  5.68219610E+04  0.00000000E+00  0.00000000E+00  5.68219610E+04
        70   96       6.80259348E-04  0.00000000E+00  2.05301917E+05  0.00000000E+00  2.05301917E+05
        70   27       8.90011096E-02  0.00000000E+00  0.00000000E+00  1.98326588E+08  1.98326588E+08
        70   29       1.82644311E-02  0.00000000E+00  0.00000000E+00  5.67788542E+07  5.67788542E+07
        70   97       8.70001553E-04  0.00000000E+00  3.97971615E+06  0.00000000E+00  3.97971615E+06
        70   63       2.68735848E-03  2.01728824E+07  0.00000000E+00  0.00000000E+00  2.01728824E+07
        70   98       1.97817636E-05  0.00000000E+00  1.91594426E+05  0.00000000E+00  1.91594426E+05
        44   33       4.29433512E-04  5.89236669E+05  0.00000000E+00  0.00000000E+00  5.89236669E+05
        44   21       4.29433512E-04  0.00000000E+00  5.89236669E+05  0.00000000E+00  5.89236669E+05
        44   22       1.04320044E-03  0.00000000E+00  3.61387081E+06  0.00000000E+00  3.61387081E+06
        44   34       1.04320044E-03  3.61387081E+06  0.00000000E+00  0.00000000E+00  3.61387081E+06
        44   23       1.62145371E-03  0.00000000E+00  7.79895908E+06  0.00000000E+00  7.79895908E+06
        44   35       1.62145371E-03  7.79895908E+06  0.00000000E+00  0.00000000E+00  7.79895908E+06
        44   91       4.17574257E-04  0.00000000E+00  0.00000000E+00  2.19164816E+06  2.19164816E+06
         3   33       4.29433512E-04  0.00000000E+00  5.89236669E+05  0.00000000E+00  5.89236669E+05
         3   21       4.29433512E-04  5.89236669E+05  0.00000000E+00  0.00000000E+00  5.89236669E+05
         3   22       1.04320044E-03  3.61387081E+06  0.00000000E+00  0.00000000E+00  3.61387081E+06
         3   34       1.04320044E-03  0.00000000E+00  3.61387081E+06  0.00000000E+00  3.61387081E+06
         3   23       1.62145371E-03  7.79895908E+06  0.00000000E+00  0.00000000E+00  7.79895908E+06
         3   35       1.62145371E-03  0.00000000E+00  7.79895908E+06  0.00000000E+00  7.79895908E+06
         3   57       4.17574257E-04  0.00000000E+00  0.00000000E+00  2.19164816E+06  2.19164816E+06
[...]
        26   50      --------------- below threshold  1.99975007E-05
        26   74      --------------- below threshold  1.35742484E-03
        26   51            72.308835  2.12342394E-05  7.66823624E-05
        26   13            72.308835  2.12342394E-05  7.66823624E-05
        26   14            86.527417  1.69678229E-05  1.25943353E-04
        26   52           264.470865  1.48820614E-03  4.08319644E-04
        26   15           264.470865  1.48820614E-03  4.08319644E-04
        26   53          1352.665299  3.19941551E-03  2.20244506E-04
        65   90           325.869991  6.91156036E-04  1.62292730E-04
        65   21            82.378918  4.18868664E-04  2.37708826E-03
        65   22            55.570888  8.75372865E-02  5.62684238E-02
        65   57            11.220393  1.36017135E-02  1.22295139E-02
        65   91            11.220393  1.36017135E-02  1.22295139E-02
        65   92            47.639109  3.30162353E-03  6.30551444E-03
        77   90           325.869991  6.91156036E-04  1.62292730E-04
        77   33            82.378918  4.18868664E-04  2.37708826E-03
        77   34            55.570888  8.75372865E-02  5.62684238E-02
        77   57            11.220393  1.36017135E-02  1.22295139E-02
        77   91            11.220393  1.36017135E-02  1.22295139E-02
        77   92            47.639109  3.30162353E-03  6.30551444E-03
        72   61      --------------- below threshold  9.47140924E-05
        72   96      ---------------  3.57916211E-04 below threshold
        72   27            36.625394  4.46808961E-03  3.27032148E-03
        72   29            44.205115  8.58033091E-02  5.95008777E-02
        72   97            37.384852  2.26837130E-02  1.65110729E-02
        72   63            14.948867  1.17913498E-03  1.38638363E-03
        72   98            94.860194  2.13521351E-05  4.15426865E-04
        84   61      --------------- below threshold  9.47140924E-05
        84   96      ---------------  3.57916211E-04 below threshold
        84   39            36.625394  4.46808961E-03  3.27032148E-03
        84   41            44.205115  8.58033091E-02  5.95008777E-02
        84   97            37.384852  2.26837130E-02  1.65110729E-02
        84   63            14.948867  1.17913498E-03  1.38638363E-03
        84   98            94.860194  2.13521351E-05  4.15426865E-04
         5   33            99.095486  1.83113137E-04  2.02443765E-02
         5   21            99.095486  1.83113137E-04  2.02443765E-02
         5   22            17.571788  3.25891938E-04  3.95364561E-04
         5   34            17.571788  3.25891938E-04  3.95364561E-04
        95   73            99.054316  1.07978365E-05  1.14180132E-03
        95   85            99.054316  1.07978365E-05  1.14180132E-03
        95   74            98.247592  6.14690065E-05  3.50768798E-03
        95   86            98.247592  6.14690065E-05  3.50768798E-03
        95   51            33.883550  2.03168227E-03  3.07288467E-03
        95   52            30.423780  2.07207107E-02  2.97813113E-02
        60   73            99.054316  1.07978365E-05  1.14180132E-03
        60   85            99.054316  1.07978365E-05  1.14180132E-03
        60   74            98.247592  6.14690065E-05  3.50768798E-03
        60   86            98.247592  6.14690065E-05  3.50768798E-03
        60   13            33.883550  2.03168227E-03  3.07288467E-03
        60   15            30.423780  2.07207107E-02  2.97813113E-02
        73   61            99.868611  5.68099879E-05  4.32378550E-02
        73   96            99.892135  1.10176034E-05  1.02142164E-02
        73   27            16.191815  7.27421144E-04  8.67959552E-04
        73   62            62.382385  1.22012277E-04  3.24348785E-04
        73   29      --------------- below threshold  1.25802509E-05
        73   97            39.884924  4.13113044E-04  6.87203733E-04
        73   63            22.841701  1.03670880E-04  8.43938825E-05
        73   98           450.861948  2.68990738E-03  4.88308803E-04
        85   61            99.868611  5.68099879E-05  4.32378550E-02
        85   96            99.892135  1.10176034E-05  1.02142164E-02
        85   39            16.191815  7.27421144E-04  8.67959552E-04
        85   62            62.382385  1.22012277E-04  3.24348785E-04
        85   41      --------------- below threshold  1.25802509E-05
        85   97            39.884924  4.13113044E-04  6.87203733E-04
        85   63            22.841701  1.03670880E-04  8.43938825E-05
        85   98           450.861948  2.68990738E-03  4.88308803E-04
        61   74            99.401455  2.52374893E-05  4.21647257E-03
        61   86            99.401455  2.52374893E-05  4.21647257E-03
        61   14            32.448564  2.11671605E-03  3.13348786E-03
        96   50      ---------------  3.15263732E-04 below threshold
        96   74            99.605798  3.94317589E-05  1.00029318E-02
        96   86            99.605798  3.94317589E-05  1.00029318E-02
        96   53      ---------------  1.44239476E-03 below threshold
        78   35            39.812596  1.19959791E-01  8.58004178E-02
        78   57           218.041678  7.01352067E-03  2.20522062E-03
        78   91           218.041678  7.01352067E-03  2.20522062E-03
        66   23            39.812596  1.19959791E-01  8.58004178E-02
        66   57           218.041678  7.01352067E-03  2.20522062E-03
        66   91           218.041678  7.01352067E-03  2.20522062E-03
        79   90      --------------- below threshold  4.76261464E-02
        79   33            99.939638  1.06610427E-05  1.76617881E-02
        79   34            27.793145  1.68595066E-03  2.33489005E-03
        79   57           125.733265  1.27515780E-03  5.64895829E-04
        79   91           125.733265  1.27515780E-03  5.64895829E-04
        79   92           508.837646  3.75450078E-03  6.16666989E-04
        67   90      --------------- below threshold  4.76261464E-02
        67   21            99.939638  1.06610427E-05  1.76617881E-02
        67   22            27.793145  1.68595066E-03  2.33489005E-03
        67   57           125.733265  1.27515780E-03  5.64895829E-04
        67   91           125.733265  1.27515780E-03  5.64895829E-04
        67   92           508.837646  3.75450078E-03  6.16666989E-04
        90   80            97.823355  1.72867546E-04  7.94192681E-03
        90   68            97.823355  1.72867546E-04  7.94192681E-03
        90   47            33.189721  4.12221958E-02  3.09499830E-02
        16   30            98.457165  2.47507975E-04  1.60424176E-02
        16   42            98.457165  2.47507975E-04  1.60424176E-02
        54   30            98.457165  2.47507975E-04  1.60424176E-02
        54   42            98.457165  2.47507975E-04  1.60424176E-02
        17   30            98.110193  1.71833473E-04  9.09264817E-03
        17   42            98.110193  1.71833473E-04  9.09264817E-03
        30   18            67.572328  3.59879692E-03  2.14760812E-03
        42   18            67.572328  3.59879692E-03  2.14760812E-03
        50   39            94.847801  4.71037999E-04  9.14246575E-03
        50   27            94.847801  4.71037999E-04  9.14246575E-03
        50   29            96.153389  5.49792412E-05  1.42929033E-03
        50   41            96.153389  5.49792412E-05  1.42929033E-03
        50   97            65.072612  3.13393996E-03  8.97272936E-03
        33   80            85.188514  3.50005033E-03  2.36306494E-02
        33   45            32.855359  2.55173236E-05  1.92068455E-05
        33    6            32.855359  2.55173236E-05  1.92068455E-05
        33    7            97.167554  1.28481677E-05  4.53606868E-04
        33    8      ---------------  1.27514130E-05 below threshold
        33   46      ---------------  1.63145356E-03 below threshold
        33   47            87.424427  1.78525211E-05  1.41961888E-04
        33   10            92.255141  2.51956283E-04  3.25320684E-03
        33   11      ---------------  2.72730038E-05 below threshold
        33   12            58.254010  1.12462334E-01  7.10644451E-02
        21   68            85.188514  3.50005033E-03  2.36306494E-02
        21   45            32.855359  2.55173236E-05  1.92068455E-05
        21    6            32.855359  2.55173236E-05  1.92068455E-05
        21    7            97.167554  1.28481677E-05  4.53606868E-04
        21    8      ---------------  1.27514130E-05 below threshold
        21   46      ---------------  1.63145356E-03 below threshold
        21   47            87.424427  1.78525211E-05  1.41961888E-04
        21   10            92.255141  2.51956283E-04  3.25320684E-03
        21   11      ---------------  2.72730038E-05 below threshold
        21   12            58.254010  1.12462334E-01  7.10644451E-02
        74   27            95.267581  1.10796325E-04  2.34121988E-03
        74   62            53.521078  1.10481498E-05  2.37702368E-05
        74   29      --------------- below threshold  2.70185212E-04
        74   97      ---------------  3.33862351E-04 below threshold
        74   63            98.803496  2.41421322E-05  2.01772310E-03
        74   98            76.396398  2.68048736E-04  1.13562640E-03
        86   39            95.267581  1.10796325E-04  2.34121988E-03
        86   62            53.521078  1.10481498E-05  2.37702368E-05
        86   41      --------------- below threshold  2.70185212E-04
        86   97      ---------------  3.33862351E-04 below threshold
        86   63            98.803496  2.41421322E-05  2.01772310E-03
        86   98            76.396398  2.68048736E-04  1.13562640E-03
        39   51      --------------- below threshold  2.78543161E-02
        39   13      --------------- below threshold  2.78543161E-02
        39   14      --------------- below threshold  4.72378414E-02
        39   52            38.733253  4.75796191E-05  3.42957568E-05
        39   15            38.733253  4.75796191E-05  3.42957568E-05
        39   53            73.270258  2.10251868E-03  7.86583964E-03
        27   51      --------------- below threshold  2.78543161E-02
        27   13      --------------- below threshold  2.78543161E-02
        27   14      --------------- below threshold  4.72378414E-02
        27   52            38.733253  4.75796190E-05  3.42957568E-05
        27   15            38.733253  4.75796191E-05  3.42957568E-05
        27   53            73.270258  2.10251868E-03  7.86583964E-03
        51   28            97.817578  2.41459410E-04  1.10638297E-02
        51   40            97.817578  2.41459410E-04  1.10638297E-02
        51   29            99.080277  5.92491460E-05  6.44206457E-03
        51   41            99.080277  5.92491460E-05  6.44206457E-03
        51   98            43.885882  3.24066368E-04  5.77513069E-04
        13   28            97.817578  2.41459410E-04  1.10638297E-02
        13   40            97.817578  2.41459410E-04  1.10638297E-02
        13   29            99.080277  5.92491460E-05  6.44206457E-03
        13   41            99.080277  5.92491460E-05  6.44206457E-03
        14   62      --------------- below threshold  8.44060808E-05
        14   29            98.750732  1.47632555E-04  1.18175233E-02
        14   41            98.750732  1.47632555E-04  1.18175233E-02
        80   34           887.792040  1.49662779E-03  1.51512437E-04
        80   57           133.868613  3.67894931E-04  1.57308382E-04
        80   91           133.868613  3.67894931E-04  1.57308382E-04
        80   92           249.945363  7.42026671E-04  2.12040721E-04
        68   22           887.792040  1.49662779E-03  1.51512437E-04
        68   57           133.868613  3.67894931E-04  1.57308382E-04
        68   91           133.868613  3.67894931E-04  1.57308382E-04
        68   92           249.945363  7.42026671E-04  2.12040721E-04
        28   52            90.762759  1.09572784E-03  1.18620688E-02
        28   15            90.762759  1.09572784E-03  1.18620688E-02
        40   52            90.762759  1.09572784E-03  1.18620688E-02
        40   15            90.762759  1.09572784E-03  1.18620688E-02
        29   52           156.961022  2.26665747E-04  8.82101671E-05
        29   15           156.961022  2.26665747E-04  8.82101672E-05
        29   53            75.711609  6.84458800E-05  2.81804918E-04
        41   52           156.961022  2.26665747E-04  8.82101672E-05
        41   15           156.961022  2.26665747E-04  8.82101672E-05
        41   53            75.711609  6.84458800E-05  2.81804918E-04
        45   22            99.841188  2.07502032E-05  1.30658597E-02
        45   34            99.841188  2.07502032E-05  1.30658597E-02
        45   23            96.625485  3.70072560E-04  1.09666894E-02
        45   35            96.625485  3.70072560E-04  1.09666894E-02
        45   91            73.501059  2.75562851E-03  1.03990138E-02
         6   22            99.841188  2.07502032E-05  1.30658597E-02
         6   34            99.841188  2.07502032E-05  1.30658597E-02
         6   23            96.625485  3.70072560E-04  1.09666894E-02
         6   35            96.625485  3.70072560E-04  1.09666894E-02
         6   57            73.501059  2.75562851E-03  1.03990138E-02
         7   22            99.898152  4.49191521E-05  4.41041469E-02
         7   34            99.898152  4.49191521E-05  4.41041469E-02
        22    8      --------------- below threshold  6.03037685E-03
        22   46            68.079062  5.07074490E-03  1.58853254E-02
        22   47           197.818066  1.79802128E-03  6.03731436E-04
        22    9            89.142121  2.90441945E-05  2.67494188E-04
        22   10            98.332115  6.45024345E-05  3.86731879E-03
        22   11            30.907212  1.59612018E-03  2.31011113E-03
        22   12      --------------- below threshold  1.43304629E-04
        34    8      --------------- below threshold  6.03037685E-03
        34   46            68.079062  5.07074490E-03  1.58853254E-02
        34   47           197.818066  1.79802128E-03  6.03731436E-04
        34    9            89.142121  2.90441945E-05  2.67494188E-04
        34   10            98.332115  6.45024345E-05  3.86731879E-03
        34   11            30.907212  1.59612018E-03  2.31011113E-03
        34   12      --------------- below threshold  1.43304629E-04
        97   53            97.555464  9.97402526E-04  4.08012965E-02
        23    9            98.908799  5.41518480E-05  4.96258951E-03
        35    9            98.908799  5.41518480E-05  4.96258951E-03
        57    9            63.456466  2.73231936E-02  7.47688863E-02
        52   98            61.955672  2.27721735E-04  5.98569472E-04
        46   92            28.381433  5.27979108E-03  7.37209818E-03
        47   92            60.727939  1.98071071E-03  5.04356189E-03
     ---------------------------------------------------------------

 Number of problematic transitions =                   550

--

 Electric-dipole - electric-octupole not included
 Electric-dipole - magnetic-quadrupole not included


      ****************************************************************************************************
      *                                                                                                  *
      *                                    Special properties section                                    *
      *                                                                                                  *
      ****************************************************************************************************


++ I/O STATISTICS
 
  I. General I/O information
  - - - - - - - - - - - - - - - - - - - - - - - - - - - - - - - - - - - - - - - - - - -
  Unit  Name          Flsize      Write/Read            MBytes           Write/Read
                      (MBytes)       Calls              In/Out           Time, sec.
  - - - - - - - - - - - - - - - - - - - - - - - - - - - - - - - - - - - - - - - - - - -
   1  RUNFILE           0.99 .     266/  263297 .      2.5/   1904.7 .       0/       0
   2  ANNI              0.00 .       0/       0 .      0.0/      0.0 .       0/       0
   3  ONEINT            1.54 .       0/  126040 .      0.0/ 152831.4 .       0/      19
   4  JOBIPH            1.52 .       0/     651 .      0.0/      1.5 .       0/       0
   5  JOBIPH01          1.22 .       0/     219 .      0.0/      1.3 .       0/       0
   6  JOBIPH02          1.22 .       0/     219 .      0.0/      1.3 .       0/       0
   7  JOBIPH03          1.28 .       0/     315 .      0.0/      1.4 .       0/       0
   8  JOBIPH04          1.32 .       0/     363 .      0.0/      1.4 .       0/       0
   9  JOBIPH05          1.15 .       0/     123 .      0.0/      1.3 .       0/       0
  10  JOBIPH06          1.28 .       0/     315 .      0.0/      1.4 .       0/       0
  11  JOBIPH07          1.32 .       0/     363 .      0.0/      1.4 .       0/       0
  12  JOBIPH08          1.15 .       0/     123 .      0.0/      1.3 .       0/       0
  13  JOBIPH09          1.28 .       0/     315 .      0.0/      1.4 .       0/       0
  14  JOBIPH10          1.32 .       0/     363 .      0.0/      1.4 .       0/       0
  15  JOBIPH11          1.15 .       0/     123 .      0.0/      1.3 .       0/       0
  16  JOBIPH12          1.22 .       0/     219 .      0.0/      1.3 .       0/       0
  17  JOBIPH13          1.32 .       0/     363 .      0.0/      1.4 .       0/       0
  18  JOBIPH14          1.28 .       0/     315 .      0.0/      1.4 .       0/       0
  19  JOBIPH15          1.32 .       0/     363 .      0.0/      1.4 .       0/       0
  20  JOBIPH16          1.15 .       0/     123 .      0.0/      1.3 .       0/       0
  21  JOBIPH17          1.28 .       0/     315 .      0.0/      1.4 .       0/       0
  22  JOBIPH18          1.32 .       0/     363 .      0.0/      1.4 .       0/       0
  23  JOBIPH19          1.15 .       0/     123 .      0.0/      1.3 .       0/       0
  24  JOBIPH20          1.28 .       0/     315 .      0.0/      1.4 .       0/       0
  25  JOBIPH21          1.32 .       0/     363 .      0.0/      1.4 .       0/       0
  26  JOBIPH22          1.15 .       0/     123 .      0.0/      1.3 .       0/       0
  - - - - - - - - - - - - - - - - - - - - - - - - - - - - - - - - - - - - - - - - - - -
   *  TOTAL            31.50 .     266/  395814 .      2.5/ 154767.2 .       0/      19
  - - - - - - - - - - - - - - - - - - - - - - - - - - - - - - - - - - - - - - - - - - -
 
  II. I/O Access Patterns
  - - - - - - - - - - - - - - - - - - - -
  Unit  Name               % of random
                         Write/Read calls
  - - - - - - - - - - - - - - - - - - - -
   1  RUNFILE             28.6/  11.1
   2  ANNI                 0.0/   0.0
   3  ONEINT               0.0/  99.3
   4  JOBIPH               0.0/  51.9
   5  JOBIPH01             0.0/  55.7
   6  JOBIPH02             0.0/  55.7
   7  JOBIPH03             0.0/  54.0
   8  JOBIPH04             0.0/  53.4
   9  JOBIPH05             0.0/  60.2
  10  JOBIPH06             0.0/  54.0
  11  JOBIPH07             0.0/  53.4
  12  JOBIPH08             0.0/  60.2
  13  JOBIPH09             0.0/  54.0
  14  JOBIPH10             0.0/  53.4
  15  JOBIPH11             0.0/  60.2
  16  JOBIPH12             0.0/  55.7
  17  JOBIPH13             0.0/  53.4
  18  JOBIPH14             0.0/  54.0
  19  JOBIPH15             0.0/  53.4
  20  JOBIPH16             0.0/  60.2
  21  JOBIPH17             0.0/  54.0
  22  JOBIPH18             0.0/  53.4
  23  JOBIPH19             0.0/  60.2
  24  JOBIPH20             0.0/  54.0
  25  JOBIPH21             0.0/  53.4
  26  JOBIPH22             0.0/  60.2
  - - - - - - - - - - - - - - - - - - - -
--
--- Stop Module: rassi at Thu Apr 17 10:48:15 2025 /rc=_RC_ALL_IS_WELL_ ---
--- Module rassi spent 41 seconds ---

.##################.
.# Happy landing! #.
.##################.

    Timing: Wall=41.07 User=19.94 System=20.63
