   This run of MOLCAS is using the pymolcas driver

                             OPE
                             OPE          NMOL  CASOP  ENMOLC A   SO
                 OPE        NMOLC        AS  OP EN  MO LC     AS  OP
                OPENM       OL CA        SO  PE NM  OL CA     SOP EN
                OP EN      MO   LC       AS  OP ENMOL  CASO   PENMOL
                OP  EN     MO   LC       AS  OP EN     MO     LC ASO
               OP   E  NMOL  C  AS       OP  EN MO     LC     AS  OP
               OP  E   NMO   LC AS        OPEN  MO     LCASOP EN   M
               O  PEN   MO  LCA  SO
            OPE   NMO   L   CAS    OP
        OPENMOL  CASOP     ENMOL   CASOPE
     OPENMOLCA   SOPENMOLCASOPEN   MOLCASOPE
    OPENMOLCAS   OP           EN   MOL    CAS
    OPENMOLCAS       OP  ENM        O     LCA
    OPENMOLCAS    OPEN  MOLCASO     P  E  NMO
    OPENMOLCAS     OP               E  N  MOL
    OPENMOLCA   SO           PENM   O  L  CAS    OPEN    MO    LCAS
    OPENMOLCA   SOP           ENM   O  L  CAS   OP  EN  MOLC  AS   O
    OPENMOLCA   SOPE           NM      O  LCA   S      OP  EN MO
    OPENMOLC                AS         O  PEN   M      OL  CA  SOPE
    OPENMO        LCASOPE  NMOL        C  ASO   P      ENMOLC     AS
    OPE     NMO      LCA  SO     P     E   NM   OL  CA SO  PE N   MO
          OPENMOLCA            SOPE   NMO        LCAS  O    P  ENMO
     OPENMOLCASOPENMOLCASOPENMOLCASOPENMOLCA
        OPENMOLCASOPENMOLCASOPENMOLCASOPE
            OPENMOLCASOPENMOLCASOPENM
               OPENMOLCASOPENMOLCA        version: 25.02
                   OPENMOLCASO
                       OPE                tag: 92-gf4b470f0a

 OpenMolcas is free software; you can redistribute it and/or modify it
 under the terms of the GNU Lesser General Public License version 2.1.
 OpenMolcas is distributed in the hope that it will be useful, but it
 is provided "as is" and without any express or implied warranties.
 For more details see the full text of the license in the file
 LICENSE or in <http://www.gnu.org/licenses/>.

                 Copyright (C) The OpenMolcas Authors
           For the author list and the recommended citation,
                   consult the file CONTRIBUTORS.md

           *************************************************
           * pymolcas version py2.29                       *
           *   build 2ba4516c4d154a59cba941070ba63e2c      *
           *   (after the EMIL interpreter by V. Veryazov) *
           *************************************************

configuration info
------------------
Host name: iftia91.univ.gda.pl (Linux)
C Compiler ID: GNU
C flags: -std=gnu99
Fortran Compiler ID: GNU
Fortran flags: -cpp -fdefault-integer-8 -fmax-stack-var-size=1048576
Definitions: _MOLCAS_;_I8_;_LINUX_
Parallel: OFF (GA=OFF)


   --------------------------------------------------------------------
  |
  |           Project: O2
  |    Submitted from: /scratch/tecumseh/WorkSpace/O2.0.6500
  |      Scratch area: /scratch/tecumseh/WorkSpace/O2.0.6500
  |   Save outputs to: WORKDIR
  |            Molcas: /home/tecumseh/program/OpenMolcas/build
  |
  | Scratch area is NOT empty
  |
  |    MOLCAS_DRIVER = /home/tecumseh/program/OpenMolcas/build/pymolcas
  |    MOLCAS_NPROCS = 1
  |    MOLCAS_SOURCE = /home/tecumseh/program/OpenMolcas/OpenMolcas
  | MOLCAS_STRUCTURE = 0
  |
   --------------------------------------------------------------------

++ ---------   Input file   ---------

>>> COPY $dir/vectors/$Project.$R.1Ag-12S.JobIph $WorkDir/JOBIPH

>>> COPY $dir/vectors/$Project.$R.3Ag-3S.JobIph $WorkDir/JOBIPH01

>>> COPY $dir/vectors/$Project.$R.5Ag-3S.JobIph $WorkDir/JOBIPH02

>>> COPY $dir/vectors/$Project.$R.1B3u-5S.JobIph $WorkDir/JOBIPH03

>>> COPY $dir/vectors/$Project.$R.3B3u-6S.JobIph $WorkDir/JOBIPH04

>>> COPY $dir/vectors/$Project.$R.5B3u-1S.JobIph $WorkDir/JOBIPH05

>>> COPY $dir/vectors/$Project.$R.1B2u-5S.JobIph $WorkDir/JOBIPH06

>>> COPY $dir/vectors/$Project.$R.3B2u-6S.JobIph $WorkDir/JOBIPH07

>>> COPY $dir/vectors/$Project.$R.5B2u-1S.JobIph $WorkDir/JOBIPH08

>>> COPY $dir/vectors/$Project.$R.1B1g-5S.JobIph $WorkDir/JOBIPH09

>>> COPY $dir/vectors/$Project.$R.3B1g-6S.JobIph $WorkDir/JOBIPH10

>>> COPY $dir/vectors/$Project.$R.5B1g-1S.JobIph $WorkDir/JOBIPH11

>>> COPY $dir/vectors/$Project.$R.1B1u-3S.JobIph $WorkDir/JOBIPH12

>>> COPY $dir/vectors/$Project.$R.3B1u-6S.JobIph $WorkDir/JOBIPH13

>>> COPY $dir/vectors/$Project.$R.1B2g-5S.JobIph $WorkDir/JOBIPH14

>>> COPY $dir/vectors/$Project.$R.3B2g-6S.JobIph $WorkDir/JOBIPH15

>>> COPY $dir/vectors/$Project.$R.5B2g-1S.JobIph $WorkDir/JOBIPH16

>>> COPY $dir/vectors/$Project.$R.1B3g-5S.JobIph $WorkDir/JOBIPH17

>>> COPY $dir/vectors/$Project.$R.3B3g-6S.JobIph $WorkDir/JOBIPH18

>>> COPY $dir/vectors/$Project.$R.5B3g-1S.JobIph $WorkDir/JOBIPH19

>>> COPY $dir/vectors/$Project.$R.1Au-5S.JobIph $WorkDir/JOBIPH20

>>> COPY $dir/vectors/$Project.$R.3Au-6S.JobIph $WorkDir/JOBIPH21

>>> COPY $dir/vectors/$Project.$R.5Au-1S.JobIph $WorkDir/JOBIPH22

&RASSI

OMEGa
NROF=23 12 3 3 5 6 1 5 6 1 5 6 1 3 6 5 6 1 5 6 1 5 6 1
1 2 3 4 5 6 7 8 9 10 11 12
1 2 3
1 2 3
1 2 3 4 5
1 2 3 4 5 6
1
1 2 3 4 5
1 2 3 4 5 6
1
1 2 3 4 5
1 2 3 4 5 6
1
1 2 3
1 2 3 4 5 6
1 2 3 4 5
1 2 3 4 5 6
1
1 2 3 4 5
1 2 3 4 5 6
1
1 2 3 4 5
1 2 3 4 5 6
1
EJOB

-- ----------------------------------

>>> COPY /home/tecumseh/project/molecule/O2/OpenMolcas/vectors/O2.0.6500.1Ag-12S.JobIph /scratch/tecumseh/WorkSpace/O2.0.6500/JOBIPH

>>> COPY /home/tecumseh/project/molecule/O2/OpenMolcas/vectors/O2.0.6500.3Ag-3S.JobIph /scratch/tecumseh/WorkSpace/O2.0.6500/JOBIPH01

>>> COPY /home/tecumseh/project/molecule/O2/OpenMolcas/vectors/O2.0.6500.5Ag-3S.JobIph /scratch/tecumseh/WorkSpace/O2.0.6500/JOBIPH02

>>> COPY /home/tecumseh/project/molecule/O2/OpenMolcas/vectors/O2.0.6500.1B3u-5S.JobIph /scratch/tecumseh/WorkSpace/O2.0.6500/JOBIPH03

>>> COPY /home/tecumseh/project/molecule/O2/OpenMolcas/vectors/O2.0.6500.3B3u-6S.JobIph /scratch/tecumseh/WorkSpace/O2.0.6500/JOBIPH04

>>> COPY /home/tecumseh/project/molecule/O2/OpenMolcas/vectors/O2.0.6500.5B3u-1S.JobIph /scratch/tecumseh/WorkSpace/O2.0.6500/JOBIPH05

>>> COPY /home/tecumseh/project/molecule/O2/OpenMolcas/vectors/O2.0.6500.1B2u-5S.JobIph /scratch/tecumseh/WorkSpace/O2.0.6500/JOBIPH06

>>> COPY /home/tecumseh/project/molecule/O2/OpenMolcas/vectors/O2.0.6500.3B2u-6S.JobIph /scratch/tecumseh/WorkSpace/O2.0.6500/JOBIPH07

>>> COPY /home/tecumseh/project/molecule/O2/OpenMolcas/vectors/O2.0.6500.5B2u-1S.JobIph /scratch/tecumseh/WorkSpace/O2.0.6500/JOBIPH08

>>> COPY /home/tecumseh/project/molecule/O2/OpenMolcas/vectors/O2.0.6500.1B1g-5S.JobIph /scratch/tecumseh/WorkSpace/O2.0.6500/JOBIPH09

>>> COPY /home/tecumseh/project/molecule/O2/OpenMolcas/vectors/O2.0.6500.3B1g-6S.JobIph /scratch/tecumseh/WorkSpace/O2.0.6500/JOBIPH10

>>> COPY /home/tecumseh/project/molecule/O2/OpenMolcas/vectors/O2.0.6500.5B1g-1S.JobIph /scratch/tecumseh/WorkSpace/O2.0.6500/JOBIPH11

>>> COPY /home/tecumseh/project/molecule/O2/OpenMolcas/vectors/O2.0.6500.1B1u-3S.JobIph /scratch/tecumseh/WorkSpace/O2.0.6500/JOBIPH12

>>> COPY /home/tecumseh/project/molecule/O2/OpenMolcas/vectors/O2.0.6500.3B1u-6S.JobIph /scratch/tecumseh/WorkSpace/O2.0.6500/JOBIPH13

>>> COPY /home/tecumseh/project/molecule/O2/OpenMolcas/vectors/O2.0.6500.1B2g-5S.JobIph /scratch/tecumseh/WorkSpace/O2.0.6500/JOBIPH14

>>> COPY /home/tecumseh/project/molecule/O2/OpenMolcas/vectors/O2.0.6500.3B2g-6S.JobIph /scratch/tecumseh/WorkSpace/O2.0.6500/JOBIPH15

>>> COPY /home/tecumseh/project/molecule/O2/OpenMolcas/vectors/O2.0.6500.5B2g-1S.JobIph /scratch/tecumseh/WorkSpace/O2.0.6500/JOBIPH16

>>> COPY /home/tecumseh/project/molecule/O2/OpenMolcas/vectors/O2.0.6500.1B3g-5S.JobIph /scratch/tecumseh/WorkSpace/O2.0.6500/JOBIPH17

>>> COPY /home/tecumseh/project/molecule/O2/OpenMolcas/vectors/O2.0.6500.3B3g-6S.JobIph /scratch/tecumseh/WorkSpace/O2.0.6500/JOBIPH18

>>> COPY /home/tecumseh/project/molecule/O2/OpenMolcas/vectors/O2.0.6500.5B3g-1S.JobIph /scratch/tecumseh/WorkSpace/O2.0.6500/JOBIPH19

>>> COPY /home/tecumseh/project/molecule/O2/OpenMolcas/vectors/O2.0.6500.1Au-5S.JobIph /scratch/tecumseh/WorkSpace/O2.0.6500/JOBIPH20

>>> COPY /home/tecumseh/project/molecule/O2/OpenMolcas/vectors/O2.0.6500.3Au-6S.JobIph /scratch/tecumseh/WorkSpace/O2.0.6500/JOBIPH21

>>> COPY /home/tecumseh/project/molecule/O2/OpenMolcas/vectors/O2.0.6500.5Au-1S.JobIph /scratch/tecumseh/WorkSpace/O2.0.6500/JOBIPH22

--- Start Module: rassi at Thu Apr 17 10:46:43 2025 ---

()()()()()()()()()()()()()()()()()()()()()()()()()()()()()()()()()()()()()()()()()()()()()()()()()()

                                               &RASSI

                                   only a single process is used
                       available to each process: 2.0 GB of memory, 1 thread?
                                            pid: 297379
()()()()()()()()()()()()()()()()()()()()()()()()()()()()()()()()()()()()()()()()()()()()()()()()()()


      ********************************************************************************
      *                                                                              *
      *                             General data section                             *
      *                                                                              *
      ********************************************************************************

   Specific data for JOBIPH file JOBIPH
   -------------------------------------

   Header from SEWARD:
                            O2, D2h symmetry, aug-cc-pVTZ                      
        Integrals generated by Gateway/Seward, Wed Apr 16 15:35:48 2025        

   CASSCF title (first line only):
       O2, 1Ag 12S                                                             

  STATE IRREP:                1
  SPIN MULTIPLICITY:          1
  ACTIVE ELECTRONS:          12
  MAX RAS1 HOLES:             0
  MAX RAS3 ELECTRONS:         0
  NR OF CONFIG:              60

   Specific data for JOBIPH file JOBIPH01
   -------------------------------------

   Header from SEWARD:
                            O2, D2h symmetry, aug-cc-pVTZ                      
        Integrals generated by Gateway/Seward, Wed Apr 16 15:35:48 2025        

   CASSCF title (first line only):
       O2, 3Ag  3S                                                             

  STATE IRREP:                1
  SPIN MULTIPLICITY:          3
  ACTIVE ELECTRONS:          12
  MAX RAS1 HOLES:             0
  MAX RAS3 ELECTRONS:         0
  NR OF CONFIG:              42

   Specific data for JOBIPH file JOBIPH02
   -------------------------------------

   Header from SEWARD:
                            O2, D2h symmetry, aug-cc-pVTZ                      
        Integrals generated by Gateway/Seward, Wed Apr 16 15:35:48 2025        

   CASSCF title (first line only):
       O2, 5Ag  3S                                                             

  STATE IRREP:                1
  SPIN MULTIPLICITY:          5
  ACTIVE ELECTRONS:          12
  MAX RAS1 HOLES:             0
  MAX RAS3 ELECTRONS:         0
  NR OF CONFIG:              10

   Specific data for JOBIPH file JOBIPH03
   -------------------------------------

   Header from SEWARD:
                            O2, D2h symmetry, aug-cc-pVTZ                      
        Integrals generated by Gateway/Seward, Thu Apr 17 10:46:34 2025        

   CASSCF title (first line only):
       O2, 1B3u 5S                                                             

  STATE IRREP:                2
  SPIN MULTIPLICITY:          1
  ACTIVE ELECTRONS:          12
  MAX RAS1 HOLES:             0
  MAX RAS3 ELECTRONS:         0
  NR OF CONFIG:              40

   Specific data for JOBIPH file JOBIPH04
   -------------------------------------

   Header from SEWARD:
                            O2, D2h symmetry, aug-cc-pVTZ                      
        Integrals generated by Gateway/Seward, Wed Apr 16 15:35:48 2025        

   CASSCF title (first line only):
       O2, 3B3u 6S                                                             

  STATE IRREP:                2
  SPIN MULTIPLICITY:          3
  ACTIVE ELECTRONS:          12
  MAX RAS1 HOLES:             0
  MAX RAS3 ELECTRONS:         0
  NR OF CONFIG:              48

   Specific data for JOBIPH file JOBIPH05
   -------------------------------------

   Header from SEWARD:
                            O2, D2h symmetry, aug-cc-pVTZ                      
        Integrals generated by Gateway/Seward, Wed Apr 16 15:35:48 2025        

   CASSCF title (first line only):
       O2, 5B3u 1S                                                             

  STATE IRREP:                2
  SPIN MULTIPLICITY:          5
  ACTIVE ELECTRONS:          12
  MAX RAS1 HOLES:             0
  MAX RAS3 ELECTRONS:         0
  NR OF CONFIG:               8

   Specific data for JOBIPH file JOBIPH06
   -------------------------------------

   Header from SEWARD:
                            O2, D2h symmetry, aug-cc-pVTZ                      
        Integrals generated by Gateway/Seward, Thu Apr 17 10:46:34 2025        

   CASSCF title (first line only):
       O2, 1B2u 5S                                                             

  STATE IRREP:                3
  SPIN MULTIPLICITY:          1
  ACTIVE ELECTRONS:          12
  MAX RAS1 HOLES:             0
  MAX RAS3 ELECTRONS:         0
  NR OF CONFIG:              40

   Specific data for JOBIPH file JOBIPH07
   -------------------------------------

   Header from SEWARD:
                            O2, D2h symmetry, aug-cc-pVTZ                      
        Integrals generated by Gateway/Seward, Wed Apr 16 15:35:48 2025        

   CASSCF title (first line only):
       O2, 3B2u 6S                                                             

  STATE IRREP:                3
  SPIN MULTIPLICITY:          3
  ACTIVE ELECTRONS:          12
  MAX RAS1 HOLES:             0
  MAX RAS3 ELECTRONS:         0
  NR OF CONFIG:              48

   Specific data for JOBIPH file JOBIPH08
   -------------------------------------

   Header from SEWARD:
                            O2, D2h symmetry, aug-cc-pVTZ                      
        Integrals generated by Gateway/Seward, Wed Apr 16 15:35:48 2025        

   CASSCF title (first line only):
       O2, 5B2u 1S                                                             

  STATE IRREP:                3
  SPIN MULTIPLICITY:          5
  ACTIVE ELECTRONS:          12
  MAX RAS1 HOLES:             0
  MAX RAS3 ELECTRONS:         0
  NR OF CONFIG:               8

   Specific data for JOBIPH file JOBIPH09
   -------------------------------------

   Header from SEWARD:
                            O2, D2h symmetry, aug-cc-pVTZ                      
        Integrals generated by Gateway/Seward, Wed Apr 16 15:35:48 2025        

   CASSCF title (first line only):
       O2, 1B1g 5S                                                             

  STATE IRREP:                4
  SPIN MULTIPLICITY:          1
  ACTIVE ELECTRONS:          12
  MAX RAS1 HOLES:             0
  MAX RAS3 ELECTRONS:         0
  NR OF CONFIG:              36

   Specific data for JOBIPH file JOBIPH10
   -------------------------------------

   Header from SEWARD:
                            O2, D2h symmetry, aug-cc-pVTZ                      
        Integrals generated by Gateway/Seward, Wed Apr 16 15:35:48 2025        

   CASSCF title (first line only):
       O2, 3B1g 6S                                                             

  STATE IRREP:                4
  SPIN MULTIPLICITY:          3
  ACTIVE ELECTRONS:          12
  MAX RAS1 HOLES:             0
  MAX RAS3 ELECTRONS:         0
  NR OF CONFIG:              48

   Specific data for JOBIPH file JOBIPH11
   -------------------------------------

   Header from SEWARD:
                            O2, D2h symmetry, aug-cc-pVTZ                      
        Integrals generated by Gateway/Seward, Wed Apr 16 15:35:48 2025        

   CASSCF title (first line only):
       O2, 5B1g 1S                                                             

  STATE IRREP:                4
  SPIN MULTIPLICITY:          5
  ACTIVE ELECTRONS:          12
  MAX RAS1 HOLES:             0
  MAX RAS3 ELECTRONS:         0
  NR OF CONFIG:              12

   Specific data for JOBIPH file JOBIPH12
   -------------------------------------

   Header from SEWARD:
                            O2, D2h symmetry, aug-cc-pVTZ                      
        Integrals generated by Gateway/Seward, Thu Apr 17 10:46:34 2025        

   CASSCF title (first line only):
       O2, 1B1u 3S                                                             

  STATE IRREP:                5
  SPIN MULTIPLICITY:          1
  ACTIVE ELECTRONS:          12
  MAX RAS1 HOLES:             0
  MAX RAS3 ELECTRONS:         0
  NR OF CONFIG:              44

   Specific data for JOBIPH file JOBIPH13
   -------------------------------------

   Header from SEWARD:
                            O2, D2h symmetry, aug-cc-pVTZ                      
        Integrals generated by Gateway/Seward, Wed Apr 16 15:35:48 2025        

   CASSCF title (first line only):
       O2, 3B1u 6S                                                             

  STATE IRREP:                5
  SPIN MULTIPLICITY:          3
  ACTIVE ELECTRONS:          12
  MAX RAS1 HOLES:             0
  MAX RAS3 ELECTRONS:         0
  NR OF CONFIG:              48

   Specific data for JOBIPH file JOBIPH14
   -------------------------------------

   Header from SEWARD:
                            O2, D2h symmetry, aug-cc-pVTZ                      
        Integrals generated by Gateway/Seward, Wed Apr 16 15:35:48 2025        

   CASSCF title (first line only):
       O2, 1B2g 5S                                                             

  STATE IRREP:                6
  SPIN MULTIPLICITY:          1
  ACTIVE ELECTRONS:          12
  MAX RAS1 HOLES:             0
  MAX RAS3 ELECTRONS:         0
  NR OF CONFIG:              40

   Specific data for JOBIPH file JOBIPH15
   -------------------------------------

   Header from SEWARD:
                            O2, D2h symmetry, aug-cc-pVTZ                      
        Integrals generated by Gateway/Seward, Wed Apr 16 15:35:48 2025        

   CASSCF title (first line only):
       O2, 3B2g 6S                                                             

  STATE IRREP:                6
  SPIN MULTIPLICITY:          3
  ACTIVE ELECTRONS:          12
  MAX RAS1 HOLES:             0
  MAX RAS3 ELECTRONS:         0
  NR OF CONFIG:              48

   Specific data for JOBIPH file JOBIPH16
   -------------------------------------

   Header from SEWARD:
                            O2, D2h symmetry, aug-cc-pVTZ                      
        Integrals generated by Gateway/Seward, Wed Apr 16 15:35:48 2025        

   CASSCF title (first line only):
       O2, 5B2g 1S                                                             

  STATE IRREP:                6
  SPIN MULTIPLICITY:          5
  ACTIVE ELECTRONS:          12
  MAX RAS1 HOLES:             0
  MAX RAS3 ELECTRONS:         0
  NR OF CONFIG:               8

   Specific data for JOBIPH file JOBIPH17
   -------------------------------------

   Header from SEWARD:
                            O2, D2h symmetry, aug-cc-pVTZ                      
        Integrals generated by Gateway/Seward, Wed Apr 16 15:35:48 2025        

   CASSCF title (first line only):
       O2, 1B3g 5S                                                             

  STATE IRREP:                7
  SPIN MULTIPLICITY:          1
  ACTIVE ELECTRONS:          12
  MAX RAS1 HOLES:             0
  MAX RAS3 ELECTRONS:         0
  NR OF CONFIG:              40

   Specific data for JOBIPH file JOBIPH18
   -------------------------------------

   Header from SEWARD:
                            O2, D2h symmetry, aug-cc-pVTZ                      
        Integrals generated by Gateway/Seward, Wed Apr 16 15:35:48 2025        

   CASSCF title (first line only):
       O2, 3B3g 6S                                                             

  STATE IRREP:                7
  SPIN MULTIPLICITY:          3
  ACTIVE ELECTRONS:          12
  MAX RAS1 HOLES:             0
  MAX RAS3 ELECTRONS:         0
  NR OF CONFIG:              48

   Specific data for JOBIPH file JOBIPH19
   -------------------------------------

   Header from SEWARD:
                            O2, D2h symmetry, aug-cc-pVTZ                      
        Integrals generated by Gateway/Seward, Wed Apr 16 15:35:48 2025        

   CASSCF title (first line only):
       O2, 5B3g 1S                                                             

  STATE IRREP:                7
  SPIN MULTIPLICITY:          5
  ACTIVE ELECTRONS:          12
  MAX RAS1 HOLES:             0
  MAX RAS3 ELECTRONS:         0
  NR OF CONFIG:               8

   Specific data for JOBIPH file JOBIPH20
   -------------------------------------

   Header from SEWARD:
                            O2, D2h symmetry, aug-cc-pVTZ                      
        Integrals generated by Gateway/Seward, Thu Apr 17 10:46:34 2025        

   CASSCF title (first line only):
       O2, 1Au 5S                                                              

  STATE IRREP:                8
  SPIN MULTIPLICITY:          1
  ACTIVE ELECTRONS:          12
  MAX RAS1 HOLES:             0
  MAX RAS3 ELECTRONS:         0
  NR OF CONFIG:              36

   Specific data for JOBIPH file JOBIPH21
   -------------------------------------

   Header from SEWARD:
                            O2, D2h symmetry, aug-cc-pVTZ                      
        Integrals generated by Gateway/Seward, Wed Apr 16 15:35:48 2025        

   CASSCF title (first line only):
       O2, 3Au 6S                                                              

  STATE IRREP:                8
  SPIN MULTIPLICITY:          3
  ACTIVE ELECTRONS:          12
  MAX RAS1 HOLES:             0
  MAX RAS3 ELECTRONS:         0
  NR OF CONFIG:              48

   Specific data for JOBIPH file JOBIPH22
   -------------------------------------

   Header from SEWARD:
                            O2, D2h symmetry, aug-cc-pVTZ                      
        Integrals generated by Gateway/Seward, Wed Apr 16 15:35:48 2025        

   CASSCF title (first line only):
       O2, 5Au 1S                                                              

  STATE IRREP:                8
  SPIN MULTIPLICITY:          5
  ACTIVE ELECTRONS:          12
  MAX RAS1 HOLES:             0
  MAX RAS3 ELECTRONS:         0
  NR OF CONFIG:              12
 ###############################################################################
 ###############################################################################
 ###                                                                         ###
 ###                                                                         ###
 ###    WARNING: EJOB used when HEFF is available, possible                  ###
 ###    extra interaction between states is ignored!                         ###
 ###                                                                         ###
 ###                                                                         ###
 ###############################################################################
 ###############################################################################

   The following data are common to all the states:
   ------------------------------------------------
   (note: frozen counts as inactive, deleted as secondary)

      Nr of irreps: 8

                 Total     No./Irrep 
      Irrep                  1   2   3   4   5   6   7   8
                            ag b3u b2u b1g b1u b2g b3g  au

      INACTIVE       2       1   0   0   0   1   0   0   0
      ACTIVE         8       2   1   1   0   2   1   1   0
      SECONDARY     82      16  10  10   5  16  10  10   5
      BASIS         92      19  11  11   5  19  11  11   5

      RAS1           0       0   0   0   0   0   0   0   0
      RAS2           8       2   1   1   0   2   1   1   0
      RAS3           0       0   0   0   0   0   0   0   0

        MATRIX ELEMENTS WILL BE COMPUTED FOR THE FOLLOWING ONE-ELECTRON OPERATORS, UNLESS ZERO BY SYMMETRY.
   (Herm=Hermitian, Anti=Antihermitian, Sing=Singlet operator, Trip=Triplet operator)
     MLTPL  0   1 (HERMSING)     MLTPL  1   1 (HERMSING)     MLTPL  1   2 (HERMSING)
     MLTPL  1   3 (HERMSING)     MLTPL  2   1 (HERMSING)     MLTPL  2   2 (HERMSING)
     MLTPL  2   3 (HERMSING)     MLTPL  2   4 (HERMSING)     MLTPL  2   5 (HERMSING)
     MLTPL  2   6 (HERMSING)     VELOCITY   1 (ANTISING)     VELOCITY   2 (ANTISING)
     VELOCITY   3 (ANTISING)     ANGMOM     1 (ANTISING)     ANGMOM     2 (ANTISING)
     ANGMOM     3 (ANTISING)     MLTPV  2   1 (ANTISING)     MLTPV  2   2 (ANTISING)
     MLTPV  2   3 (ANTISING)     MLTPV  2   4 (ANTISING)     MLTPV  2   5 (ANTISING)
     MLTPV  2   6 (ANTISING)

       EIGENSTATES OF A SPIN-FREE HAMILTONIAN WILL BE COMPUTED BASED ON:

  a Hamiltonian matrix assumed to be diagonal with energies read from the wavefunction file(s).

  Nr of states:                   99

   State:        1   2   3   4   5   6   7   8   9  10  11  12  13  14  15  16  17  18  19  20
  JobIph:        1   1   1   1   1   1   1   1   1   1   1   1   2   2   2   3   3   3   4   4
 Root nr:        1   2   3   4   5   6   7   8   9  10  11  12   1   2   3   1   2   3   1   2

   State:       21  22  23  24  25  26  27  28  29  30  31  32  33  34  35  36  37  38  39  40
  JobIph:        4   4   4   5   5   5   5   5   5   6   7   7   7   7   7   8   8   8   8   8
 Root nr:        3   4   5   1   2   3   4   5   6   1   1   2   3   4   5   1   2   3   4   5

   State:       41  42  43  44  45  46  47  48  49  50  51  52  53  54  55  56  57  58  59  60
  JobIph:        8   9  10  10  10  10  10  11  11  11  11  11  11  12  13  13  13  14  14  14
 Root nr:        6   1   1   2   3   4   5   1   2   3   4   5   6   1   1   2   3   1   2   3

   State:       61  62  63  64  65  66  67  68  69  70  71  72  73  74  75  76  77  78  79  80
  JobIph:       14  14  14  15  15  15  15  15  16  16  16  16  16  16  17  18  18  18  18  18
 Root nr:        4   5   6   1   2   3   4   5   1   2   3   4   5   6   1   1   2   3   4   5

   State:       81  82  83  84  85  86  87  88  89  90  91  92  93  94  95  96  97  98  99
  JobIph:       19  19  19  19  19  19  20  21  21  21  21  21  22  22  22  22  22  22  23
 Root nr:        1   2   3   4   5   6   1   1   2   3   4   5   1   2   3   4   5   6   1

  HAMILTONIAN MATRIX FOR THE ORIGINAL STATES:

  Diagonal, with energies
   -149.71952285   -149.70194453   -149.20301083   -149.19281276   -149.14441498
   -148.93743009   -148.93516022   -148.91441649   -148.66539021   -148.65104342
   -148.60772542   -148.54671785   -148.99217012   -148.98819325   -148.80663541
   -149.09628645   -149.09257949   -148.71474666   -149.33145655   -149.22024424
   -148.97529660   -148.92770048   -148.87052839   -149.39225294   -149.25890830
   -149.11866660   -148.99573663   -148.95805090   -148.94982985   -149.05675564
   -149.33145655   -149.22024424   -148.97529660   -148.92770048   -148.87052839
   -149.39225294   -149.25890830   -149.11866660   -148.99573663   -148.95805090
   -148.94982985   -149.05675564   -149.71952285   -149.20301083   -148.93743009
   -148.76584873   -148.71369536   -149.75227287   -149.26299546   -149.04911613
   -148.99217012   -148.80945878   -148.80663541   -149.09628645   -149.35484318
   -149.30587750   -148.80989919   -149.57646990   -149.57258856   -149.16272557
   -149.14850074   -148.86523257   -148.81460492   -149.42726955   -149.18116767
   -149.11322775   -149.08046189   -148.94137127   -149.47873704   -149.22702773
   -149.18225474   -149.17890442   -149.14908170   -148.98833311   -149.29857148
   -149.42726955   -149.18116767   -149.11322775   -149.08046189   -148.94137127
   -149.47873704   -149.22702773   -149.18225474   -149.17890442   -149.14908170
   -148.98833311   -149.29857148   -149.58446708   -149.35484318   -149.07695518
   -148.80989919   -148.68381151   -149.57646990   -149.44215305   -149.16272557
   -149.13260646   -148.83725885   -148.74691372   -149.24665556

      OVERLAP MATRIX FOR THE ORIGINAL STATES:

  Diagonal, with elements
      1.00000000      1.00000000      1.00000000      1.00000000      1.00000000
      1.00000000      1.00000000      1.00000000      1.00000000      1.00000000
      1.00000000      1.00000000      1.00000000      1.00000000      1.00000000
      1.00000000      1.00000000      1.00000000      1.00000000      1.00000000
      1.00000000      1.00000000      1.00000000      1.00000000      1.00000000
      1.00000000      1.00000000      1.00000000      1.00000000      1.00000000
      1.00000000      1.00000000      1.00000000      1.00000000      1.00000000
      1.00000000      1.00000000      1.00000000      1.00000000      1.00000000
      1.00000000      1.00000000      1.00000000      1.00000000      1.00000000
      1.00000000      1.00000000      1.00000000      1.00000000      1.00000000
      1.00000000      1.00000000      1.00000000      1.00000000      1.00000000
      1.00000000      1.00000000      1.00000000      1.00000000      1.00000000
      1.00000000      1.00000000      1.00000000      1.00000000      1.00000000
      1.00000000      1.00000000      1.00000000      1.00000000      1.00000000
      1.00000000      1.00000000      1.00000000      1.00000000      1.00000000
      1.00000000      1.00000000      1.00000000      1.00000000      1.00000000
      1.00000000      1.00000000      1.00000000      1.00000000      1.00000000
      1.00000000      1.00000000      1.00000000      1.00000000      1.00000000
      1.00000000      1.00000000      1.00000000      1.00000000      1.00000000
      1.00000000      1.00000000      1.00000000      1.00000000

::    RASSI State    1     Total energy:    -149.71952284703866
::    RASSI State    2     Total energy:    -149.70194452584263
::    RASSI State    3     Total energy:    -149.20301083023600
::    RASSI State    4     Total energy:    -149.19281275887965
::    RASSI State    5     Total energy:    -149.14441497870322
::    RASSI State    6     Total energy:    -148.93743009416431
::    RASSI State    7     Total energy:    -148.93516022234923
::    RASSI State    8     Total energy:    -148.91441649072280
::    RASSI State    9     Total energy:    -148.66539020530081
::    RASSI State   10     Total energy:    -148.65104342365876
::    RASSI State   11     Total energy:    -148.60772541580673
::    RASSI State   12     Total energy:    -148.54671785178209
::    RASSI State   13     Total energy:    -148.99217012224193
::    RASSI State   14     Total energy:    -148.98819324811848
::    RASSI State   15     Total energy:    -148.80663541344319
::    RASSI State   16     Total energy:    -149.09628644724700
::    RASSI State   17     Total energy:    -149.09257949137003
::    RASSI State   18     Total energy:    -148.71474665592001
::    RASSI State   19     Total energy:    -149.33145655332143
::    RASSI State   20     Total energy:    -149.22024424121119
::    RASSI State   21     Total energy:    -148.97529659746078
::    RASSI State   22     Total energy:    -148.92770048053848
::    RASSI State   23     Total energy:    -148.87052838753277
::    RASSI State   24     Total energy:    -149.39225294419211
::    RASSI State   25     Total energy:    -149.25890829503496
::    RASSI State   26     Total energy:    -149.11866659599781
::    RASSI State   27     Total energy:    -148.99573663095799
::    RASSI State   28     Total energy:    -148.95805090249729
::    RASSI State   29     Total energy:    -148.94982984547158
::    RASSI State   30     Total energy:    -149.05675564190665
::    RASSI State   31     Total energy:    -149.33145655332157
::    RASSI State   32     Total energy:    -149.22024424121122
::    RASSI State   33     Total energy:    -148.97529659746081
::    RASSI State   34     Total energy:    -148.92770048053842
::    RASSI State   35     Total energy:    -148.87052838753283
::    RASSI State   36     Total energy:    -149.39225294419211
::    RASSI State   37     Total energy:    -149.25890829503498
::    RASSI State   38     Total energy:    -149.11866659599781
::    RASSI State   39     Total energy:    -148.99573663095811
::    RASSI State   40     Total energy:    -148.95805090249723
::    RASSI State   41     Total energy:    -148.94982984547161
::    RASSI State   42     Total energy:    -149.05675564190673
::    RASSI State   43     Total energy:    -149.71952284703889
::    RASSI State   44     Total energy:    -149.20301083023605
::    RASSI State   45     Total energy:    -148.93743009416443
::    RASSI State   46     Total energy:    -148.76584872752946
::    RASSI State   47     Total energy:    -148.71369536014930
::    RASSI State   48     Total energy:    -149.75227287320934
::    RASSI State   49     Total energy:    -149.26299546337304
::    RASSI State   50     Total energy:    -149.04911612923681
::    RASSI State   51     Total energy:    -148.99217012224190
::    RASSI State   52     Total energy:    -148.80945878230401
::    RASSI State   53     Total energy:    -148.80663541344319
::    RASSI State   54     Total energy:    -149.09628644724700
::    RASSI State   55     Total energy:    -149.35484317959222
::    RASSI State   56     Total energy:    -149.30587749903037
::    RASSI State   57     Total energy:    -148.80989918585479
::    RASSI State   58     Total energy:    -149.57646989884336
::    RASSI State   59     Total energy:    -149.57258855544848
::    RASSI State   60     Total energy:    -149.16272556577229
::    RASSI State   61     Total energy:    -149.14850074445658
::    RASSI State   62     Total energy:    -148.86523256655880
::    RASSI State   63     Total energy:    -148.81460492245066
::    RASSI State   64     Total energy:    -149.42726955496303
::    RASSI State   65     Total energy:    -149.18116767492930
::    RASSI State   66     Total energy:    -149.11322774955048
::    RASSI State   67     Total energy:    -149.08046189320368
::    RASSI State   68     Total energy:    -148.94137127369439
::    RASSI State   69     Total energy:    -149.47873704172119
::    RASSI State   70     Total energy:    -149.22702773366308
::    RASSI State   71     Total energy:    -149.18225474061819
::    RASSI State   72     Total energy:    -149.17890442389933
::    RASSI State   73     Total energy:    -149.14908170441413
::    RASSI State   74     Total energy:    -148.98833311317509
::    RASSI State   75     Total energy:    -149.29857148412142
::    RASSI State   76     Total energy:    -149.42726955496312
::    RASSI State   77     Total energy:    -149.18116767492938
::    RASSI State   78     Total energy:    -149.11322774955067
::    RASSI State   79     Total energy:    -149.08046189320365
::    RASSI State   80     Total energy:    -148.94137127369459
::    RASSI State   81     Total energy:    -149.47873704172119
::    RASSI State   82     Total energy:    -149.22702773366322
::    RASSI State   83     Total energy:    -149.18225474061825
::    RASSI State   84     Total energy:    -149.17890442389927
::    RASSI State   85     Total energy:    -149.14908170441410
::    RASSI State   86     Total energy:    -148.98833311317523
::    RASSI State   87     Total energy:    -149.29857148412145
::    RASSI State   88     Total energy:    -149.58446707715672
::    RASSI State   89     Total energy:    -149.35484317959225
::    RASSI State   90     Total energy:    -149.07695517798538
::    RASSI State   91     Total energy:    -148.80989918585470
::    RASSI State   92     Total energy:    -148.68381150545503
::    RASSI State   93     Total energy:    -149.57646989884341
::    RASSI State   94     Total energy:    -149.44215304626999
::    RASSI State   95     Total energy:    -149.16272556577229
::    RASSI State   96     Total energy:    -149.13260646065191
::    RASSI State   97     Total energy:    -148.83725885266489
::    RASSI State   98     Total energy:    -148.74691371828357
::    RASSI State   99     Total energy:    -149.24665555826411



      ****************************************************************************************************
      *                                                                                                  *
      *                                         Spin-free section                                        *
      *                                                                                                  *
      *                 Note: index according to input order, order according to energy.                 *
      *                                                                                                  *
      ****************************************************************************************************



  SPIN-FREE ENERGIES:
  (Shifted by EMIN (a.u.) =       -149.7522728732)

 SF State       Relative EMIN(au)   Rel lowest level(eV)    D:o, cm**(-1)      L_eff   Abs_M

    48             0.0000000000        0.0000000000              0.0000         1.6     0.0
    43             0.0327500262        0.8911736117           7187.7999         2.4     2.0
     1             0.0327500262        0.8911736117           7187.7999         2.4     2.0
     2             0.0503283474        1.3695040993          11045.7955         1.6     0.0
    88             0.1678057961        4.5662283307          36829.1152         1.2     0.0
    93             0.1758029744        4.7838426387          38584.2930         2.1     2.0
    58             0.1758029744        4.7838426387          38584.2930         2.1     2.0
    59             0.1796843178        4.8894593729          39436.1494         1.2     0.0
    69             0.2735358315        7.4432891627          60034.1758         1.4     1.0
    81             0.2735358315        7.4432891627          60034.1758         1.4     1.0
    94             0.3101198269        8.4387903934          68063.4347         1.5     0.0
    76             0.3250033182        8.8437908240          71329.9835         2.6     1.0
    64             0.3250033182        8.8437908240          71329.9835         2.6     1.0
    24             0.3600199290        9.7966413447          79015.2412         1.9     1.0
    36             0.3600199290        9.7966413447          79015.2412         1.9     1.0
    89             0.3974296936       10.8146128986          87225.7355         2.2     2.0
    55             0.3974296936       10.8146128986          87225.7355         2.2     2.0
    31             0.4208163199       11.4509954191          92358.5067         1.6     1.0
    19             0.4208163199       11.4509954191          92358.5067         1.6     1.0
    56             0.4463953742       12.1470369452          97972.4602         0.9     0.0
    87             0.4537013891       12.3458437388          99575.9451         1.5     1.0
    75             0.4537013891       12.3458437388          99575.9451         1.5     1.0
    49             0.4892774098       13.3139165805         107383.9792         0.7     0.0
    37             0.4933645782       13.4251340968         108281.0089         1.9     1.0
    25             0.4933645782       13.4251340968         108281.0089         1.9     1.0
    99             0.5056173149       13.7585480496         110970.1738         0.2     0.0
    82             0.5252451395       14.2926483660         115277.9834         1.5     1.0
    70             0.5252451395       14.2926483660         115277.9834         1.5     1.0
    32             0.5320286320       14.4772365992         116766.7879         1.4     1.0
    20             0.5320286320       14.4772365992         116766.7879         1.4     1.0
    44             0.5492620430       14.9461816016         120549.0844         1.8     2.0
     3             0.5492620430       14.9461816016         120549.0844         1.8     2.0
     4             0.5594601143       15.2236852602         122787.3024         1.7     0.0
    83             0.5700181326       15.5109835731         125104.5195         2.9     3.0
    71             0.5700181326       15.5109835732         125104.5195         2.9     3.0
    77             0.5711051983       15.5405641375         125343.1029         1.8     1.0
    65             0.5711051983       15.5405641375         125343.1029         1.8     1.0
    72             0.5733684493       15.6021503354         125839.8290         1.3     1.0
    84             0.5733684493       15.6021503354         125839.8290         1.3     1.0
    60             0.5895473074       16.0423994929         129390.6780         2.0     2.0
    95             0.5895473074       16.0423994929         129390.6780         2.0     2.0
    73             0.6031911688       16.4136678743         132385.1594         1.3     1.0
    85             0.6031911688       16.4136678743         132385.1594         1.3     1.0
    61             0.6037721288       16.4294766000         132512.6654         1.0     0.0
     5             0.6078578945       16.5406559501         133409.3873         1.2     0.0
    96             0.6196664126       16.8619820958         136001.0575         1.3     0.0
    38             0.6336062772       17.2413051371         139060.5041         1.3     1.0
    26             0.6336062772       17.2413051371         139060.5041         1.3     1.0
    78             0.6390451237       17.3893036885         140254.1929         3.1     3.0
    66             0.6390451237       17.3893036885         140254.1929         3.1     3.0
    54             0.6559864260       17.8503000090         143972.3790         1.9     2.0
    16             0.6559864260       17.8503000090         143972.3790         1.9     2.0
    17             0.6596933818       17.9511714171         144785.9618         0.8     0.0
    67             0.6718109800       18.2809080612         147445.4672         1.9     1.0
    79             0.6718109800       18.2809080612         147445.4672         1.9     1.0
    90             0.6753176952       18.3763306435         148215.1022         1.8     0.0
    42             0.6955172313       18.9259880217         152648.3879         0.7     1.0
    30             0.6955172313       18.9259880217         152648.3879         0.7     1.0
    50             0.7031567440       19.1338697517         154325.0672         1.1     0.0
    39             0.7565362423       20.5863998970         166040.5129         1.0     1.0
    27             0.7565362423       20.5863998970         166040.5129         1.0     1.0
    13             0.7601027510       20.6834495432         166823.2711         2.2     2.0
    51             0.7601027510       20.6834495432         166823.2711         2.2     2.0
    86             0.7639397600       20.7878598790         167665.3972         0.8     1.0
    74             0.7639397600       20.7878598790         167665.3972         0.8     1.0
    14             0.7640796251       20.7916658010         167696.0940         1.4     0.0
    33             0.7769762757       21.1426015434         170526.5817         1.2     1.0
    21             0.7769762757       21.1426015434         170526.5817         1.2     1.0
    28             0.7942219707       21.6118808101         174311.5742         2.6     3.0
    40             0.7942219707       21.6118808101         174311.5742         2.6     3.0
    41             0.8024430277       21.8355871682         176115.8877         1.0     1.0
    29             0.8024430277       21.8355871682         176115.8877         1.0     1.0
    80             0.8109015995       22.0657566319         177972.3296         1.2     1.0
    68             0.8109015995       22.0657566319         177972.3296         1.2     1.0
    45             0.8148427790       22.1730015903         178837.3185         2.4     2.0
     6             0.8148427790       22.1730015903         178837.3185         2.4     2.0
     7             0.8171126509       22.2347679490         179335.4978         1.5     0.0
    22             0.8245723927       22.4377578647         180972.7219         1.1     1.0
    34             0.8245723927       22.4377578647         180972.7219         1.1     1.0
     8             0.8378563825       22.7992336425         183888.2207         1.0     0.0
    35             0.8817444857       23.9934897700         193520.5460         2.7     3.0
    23             0.8817444857       23.9934897700         193520.5460         2.7     3.0
    62             0.8870403067       24.1375964000         194682.8443         1.5     0.0
    97             0.9150140205       24.8987999335         200822.3649         0.6     0.0
    63             0.9376679508       25.5152447786         205794.3278         0.7     0.0
    57             0.9423736874       25.6432943947         206827.1176         1.8     2.0
    91             0.9423736874       25.6432943947         206827.1176         1.8     2.0
    52             0.9428140909       25.6552783858         206923.7750         1.1     0.0
    15             0.9456374598       25.7321061664         207543.4329         2.0     2.0
    53             0.9456374598       25.7321061664         207543.4329         2.0     2.0
    46             0.9864241457       26.8419684305         216495.0757         0.4     0.0
    98             1.0053591549       27.3572162806         220650.8299         0.7     0.0
    18             1.0375262173       28.2325266390         227710.6841         0.6     0.0
    47             1.0385775131       28.2611338543         227941.4168         1.3     0.0
    92             1.0684613678       29.0743149669         234500.1648         0.7     0.0
     9             1.0868826679       29.5755840805         238543.1729         0.8     0.0
    10             1.1012294496       29.9659798972         241691.9275         0.7     0.0
    11             1.1445474574       31.1447229402         251199.1313         0.7     0.0
    12             1.2055550214       32.8048233288         264588.7439         0.6     0.0

++ Dipole transition strengths (spin-free states):
   -----------------------------------------------
     for osc. strength at least  1.00000000E-05

      From   To        Osc. strength     Einstein coefficients Ax, Ay, Az (sec-1)    Total A (sec-1)
     -----------------------------------------------------------------------------------------------
        48   94       8.94806345E-02  0.00000000E+00  0.00000000E+00  2.76502463E+08  2.76502463E+08
        48   24       7.95720025E-04  0.00000000E+00  3.31378444E+06  0.00000000E+00  3.31378444E+06
        48   36       7.95720025E-04  3.31378444E+06  0.00000000E+00  0.00000000E+00  3.31378444E+06
        48   37       1.48152709E-02  1.15866106E+08  0.00000000E+00  0.00000000E+00  1.15866106E+08
        48   25       1.48152709E-02  0.00000000E+00  1.15866106E+08  0.00000000E+00  1.15866106E+08
        48   96       2.74682669E-03  0.00000000E+00  0.00000000E+00  3.38889456E+07  3.38889456E+07
        48   38       1.38337994E-01  1.78439624E+09  0.00000000E+00  0.00000000E+00  1.78439624E+09
        48   26       1.38337994E-01  0.00000000E+00  1.78439624E+09  0.00000000E+00  1.78439624E+09
        48   39       8.09924308E-04  1.48941181E+07  0.00000000E+00  0.00000000E+00  1.48941181E+07
        48   27       8.09924308E-04  0.00000000E+00  1.48941181E+07  0.00000000E+00  1.48941181E+07
        48   41       6.88581421E-04  1.42460544E+07  0.00000000E+00  0.00000000E+00  1.42460544E+07
        48   29       6.88581421E-04  0.00000000E+00  1.42460544E+07  0.00000000E+00  1.42460544E+07
        48   97       1.18525700E+00  0.00000000E+00  0.00000000E+00  3.18844484E+10  3.18844484E+10
        43   89       7.43956228E-02  0.00000000E+00  0.00000000E+00  3.17893294E+08  3.17893294E+08
        43   31       1.78191676E-03  8.62204216E+06  0.00000000E+00  0.00000000E+00  8.62204216E+06
        43   19       1.78191676E-03  0.00000000E+00  8.62204216E+06  0.00000000E+00  8.62204216E+06
        43   32       2.90612714E-02  2.32761639E+08  0.00000000E+00  0.00000000E+00  2.32761639E+08
        43   20       2.90612714E-02  0.00000000E+00  2.32761639E+08  0.00000000E+00  2.32761639E+08
        43   33       1.22655812E-01  2.18277507E+09  0.00000000E+00  0.00000000E+00  2.18277507E+09
        43   21       1.22655812E-01  0.00000000E+00  2.18277507E+09  0.00000000E+00  2.18277507E+09
        43   22       6.89660148E-03  0.00000000E+00  1.38931762E+08  0.00000000E+00  1.38931762E+08
        43   34       6.89660148E-03  1.38931762E+08  0.00000000E+00  0.00000000E+00  1.38931762E+08
        43   35       1.67007441E-04  3.86773237E+06  0.00000000E+00  0.00000000E+00  3.86773237E+06
        43   23       1.67007441E-04  0.00000000E+00  3.86773237E+06  0.00000000E+00  3.86773237E+06
        43   91       1.18237526E+00  0.00000000E+00  0.00000000E+00  3.14332809E+10  3.14332809E+10
         1   55       7.43956228E-02  0.00000000E+00  0.00000000E+00  3.17893294E+08  3.17893294E+08
         1   31       1.78191676E-03  0.00000000E+00  8.62204216E+06  0.00000000E+00  8.62204216E+06
         1   19       1.78191676E-03  8.62204216E+06  0.00000000E+00  0.00000000E+00  8.62204216E+06
         1   32       2.90612714E-02  0.00000000E+00  2.32761639E+08  0.00000000E+00  2.32761639E+08
         1   20       2.90612714E-02  2.32761639E+08  0.00000000E+00  0.00000000E+00  2.32761639E+08
         1   33       1.22655812E-01  0.00000000E+00  2.18277507E+09  0.00000000E+00  2.18277507E+09
         1   21       1.22655812E-01  2.18277507E+09  0.00000000E+00  0.00000000E+00  2.18277507E+09
         1   22       6.89660148E-03  1.38931762E+08  0.00000000E+00  0.00000000E+00  1.38931762E+08
         1   34       6.89660148E-03  0.00000000E+00  1.38931762E+08  0.00000000E+00  1.38931762E+08
         1   35       1.67007441E-04  0.00000000E+00  3.86773237E+06  0.00000000E+00  3.86773237E+06
         1   23       1.67007441E-04  3.86773237E+06  0.00000000E+00  0.00000000E+00  3.86773237E+06
         1   57       1.18237526E+00  0.00000000E+00  0.00000000E+00  3.14332809E+10  3.14332809E+10
         2   31       7.49886040E-03  0.00000000E+00  3.30715370E+07  0.00000000E+00  3.30715370E+07
         2   19       7.49886040E-03  3.30715370E+07  0.00000000E+00  0.00000000E+00  3.30715370E+07
         2   56       6.87492087E-02  0.00000000E+00  0.00000000E+00  3.46510152E+08  3.46510152E+08
         2   32       2.57653646E-02  0.00000000E+00  1.92088330E+08  0.00000000E+00  1.92088330E+08
         2   20       2.57653646E-02  1.92088330E+08  0.00000000E+00  0.00000000E+00  1.92088330E+08
         2   33       8.88154611E-02  0.00000000E+00  1.50677199E+09  0.00000000E+00  1.50677199E+09
         2   21       8.88154611E-02  1.50677199E+09  0.00000000E+00  0.00000000E+00  1.50677199E+09
         2   22       7.15784947E-03  1.37863466E+08  0.00000000E+00  0.00000000E+00  1.37863466E+08
         2   34       7.15784947E-03  0.00000000E+00  1.37863466E+08  0.00000000E+00  1.37863466E+08
        88   76       4.73104490E-03  3.75629200E+06  0.00000000E+00  0.00000000E+00  3.75629200E+06
        88   64       4.73104490E-03  0.00000000E+00  3.75629200E+06  0.00000000E+00  3.75629200E+06
        88   77       2.72761255E-03  1.42543927E+07  0.00000000E+00  0.00000000E+00  1.42543927E+07
        88   65       2.72761255E-03  0.00000000E+00  1.42543927E+07  0.00000000E+00  1.42543927E+07
        88   67       2.30321905E-03  0.00000000E+00  1.87981942E+07  0.00000000E+00  1.87981942E+07
        88   79       2.30321905E-03  1.87981942E+07  0.00000000E+00  0.00000000E+00  1.87981942E+07
        88   80       9.21706562E-03  1.22477105E+08  0.00000000E+00  0.00000000E+00  1.22477105E+08
        88   68       9.21706562E-03  0.00000000E+00  1.22477105E+08  0.00000000E+00  1.22477105E+08
        88   46       1.45721365E-01  0.00000000E+00  0.00000000E+00  3.13759630E+09  3.13759630E+09
        88   47       7.81773515E-01  0.00000000E+00  0.00000000E+00  1.90458546E+10  1.90458546E+10
        93   69       2.23554969E-03  0.00000000E+00  6.86082594E+05  0.00000000E+00  6.86082594E+05
        93   81       2.23554969E-03  6.86082594E+05  0.00000000E+00  0.00000000E+00  6.86082594E+05
        93   82       2.86929259E-04  1.12573543E+06  0.00000000E+00  0.00000000E+00  1.12573543E+06
        93   70       2.86929259E-04  0.00000000E+00  1.12573543E+06  0.00000000E+00  1.12573543E+06
        93   83       1.10508832E-03  5.51790873E+06  0.00000000E+00  0.00000000E+00  5.51790873E+06
        93   71       1.10508832E-03  0.00000000E+00  5.51790873E+06  0.00000000E+00  5.51790873E+06
        93   72       2.39104426E-03  0.00000000E+00  1.21427156E+07  0.00000000E+00  1.21427156E+07
        93   84       2.39104426E-03  1.21427156E+07  0.00000000E+00  0.00000000E+00  1.21427156E+07
        93   73       8.84794943E-04  0.00000000E+00  5.19276367E+06  0.00000000E+00  5.19276367E+06
        93   85       8.84794943E-04  5.19276367E+06  0.00000000E+00  0.00000000E+00  5.19276367E+06
        93   51       3.42141975E-03  0.00000000E+00  0.00000000E+00  3.75308742E+07  3.75308742E+07
        93   86       1.32717646E-03  1.47501433E+07  0.00000000E+00  0.00000000E+00  1.47501433E+07
        93   74       1.32717646E-03  0.00000000E+00  1.47501433E+07  0.00000000E+00  1.47501433E+07
        93   53       4.22219717E-02  0.00000000E+00  0.00000000E+00  8.03977912E+08  8.03977912E+08
        58   69       2.23554969E-03  6.86082594E+05  0.00000000E+00  0.00000000E+00  6.86082594E+05
        58   81       2.23554969E-03  0.00000000E+00  6.86082594E+05  0.00000000E+00  6.86082594E+05
        58   82       2.86929259E-04  0.00000000E+00  1.12573543E+06  0.00000000E+00  1.12573543E+06
        58   70       2.86929259E-04  1.12573543E+06  0.00000000E+00  0.00000000E+00  1.12573543E+06
        58   83       1.10508832E-03  0.00000000E+00  5.51790873E+06  0.00000000E+00  5.51790873E+06
        58   71       1.10508832E-03  5.51790873E+06  0.00000000E+00  0.00000000E+00  5.51790873E+06
        58   72       2.39104426E-03  1.21427156E+07  0.00000000E+00  0.00000000E+00  1.21427156E+07
        58   84       2.39104426E-03  0.00000000E+00  1.21427156E+07  0.00000000E+00  1.21427156E+07
        58   73       8.84794943E-04  5.19276367E+06  0.00000000E+00  0.00000000E+00  5.19276367E+06
        58   85       8.84794943E-04  0.00000000E+00  5.19276367E+06  0.00000000E+00  5.19276367E+06
        58   13       3.42141975E-03  0.00000000E+00  0.00000000E+00  3.75308742E+07  3.75308742E+07
        58   86       1.32717646E-03  0.00000000E+00  1.47501433E+07  0.00000000E+00  1.47501433E+07
        58   74       1.32717646E-03  1.47501433E+07  0.00000000E+00  0.00000000E+00  1.47501433E+07
        58   15       4.22219717E-02  0.00000000E+00  0.00000000E+00  8.03977912E+08  8.03977912E+08
        59   69       2.18834988E-03  6.19313013E+05  0.00000000E+00  0.00000000E+00  6.19313013E+05
        59   81       2.18834988E-03  0.00000000E+00  6.19313013E+05  0.00000000E+00  6.19313013E+05
        59   82       1.77494876E-03  0.00000000E+00  6.80997783E+06  0.00000000E+00  6.80997783E+06
        59   70       1.77494876E-03  6.80997783E+06  0.00000000E+00  0.00000000E+00  6.80997783E+06
        59   72       3.62508583E-03  1.80519864E+07  0.00000000E+00  0.00000000E+00  1.80519864E+07
        59   84       3.62508583E-03  0.00000000E+00  1.80519864E+07  0.00000000E+00  1.80519864E+07
        59   73       2.55253037E-05  1.47096616E+05  0.00000000E+00  0.00000000E+00  1.47096616E+05
        59   85       2.55253037E-05  0.00000000E+00  1.47096616E+05  0.00000000E+00  1.47096616E+05
        59   86       1.72027794E-03  0.00000000E+00  1.88675295E+07  0.00000000E+00  1.88675295E+07
        59   74       1.72027794E-03  1.88675295E+07  0.00000000E+00  0.00000000E+00  1.88675295E+07
        59   14       3.23373381E-03  0.00000000E+00  0.00000000E+00  3.54836747E+07  3.54836747E+07
        69   94       1.61840130E-04  0.00000000E+00  6.95952135E+03  0.00000000E+00  6.95952135E+03
        69   24       1.09927746E-04  0.00000000E+00  0.00000000E+00  2.64174396E+04  2.64174396E+04
        69   25       2.07616144E-02  0.00000000E+00  0.00000000E+00  3.22359869E+07  3.22359869E+07
        69   60       1.16814287E-03  3.74811194E+06  0.00000000E+00  0.00000000E+00  3.74811194E+06
        69   95       1.16814287E-03  0.00000000E+00  3.74811194E+06  0.00000000E+00  3.74811194E+06
        69   61       1.04268201E-04  3.65352747E+05  0.00000000E+00  0.00000000E+00  3.65352747E+05
        69   96       4.42612179E-03  0.00000000E+00  1.70378263E+07  0.00000000E+00  1.70378263E+07
        69   26       1.74268553E-01  0.00000000E+00  0.00000000E+00  7.25946908E+08  7.25946908E+08
        69   27       1.81699861E-03  0.00000000E+00  0.00000000E+00  1.36194785E+07  1.36194785E+07
        69   29       8.32675018E-05  0.00000000E+00  0.00000000E+00  7.48419975E+05  7.48419975E+05
        69   62       1.72641594E-01  2.08781393E+09  0.00000000E+00  0.00000000E+00  2.08781393E+09
        69   97       2.62639566E-03  0.00000000E+00  3.47244059E+07  0.00000000E+00  3.47244059E+07
        69   98       1.12922266E-05  0.00000000E+00  1.94313494E+05  0.00000000E+00  1.94313494E+05
        81   94       1.61840130E-04  6.95952135E+03  0.00000000E+00  0.00000000E+00  6.95952135E+03
        81   36       1.09927746E-04  0.00000000E+00  0.00000000E+00  2.64174396E+04  2.64174396E+04
        81   37       2.07616144E-02  0.00000000E+00  0.00000000E+00  3.22359869E+07  3.22359869E+07
        81   60       1.16814287E-03  0.00000000E+00  3.74811194E+06  0.00000000E+00  3.74811194E+06
        81   95       1.16814287E-03  3.74811194E+06  0.00000000E+00  0.00000000E+00  3.74811194E+06
        81   61       1.04268201E-04  0.00000000E+00  3.65352747E+05  0.00000000E+00  3.65352747E+05
        81   96       4.42612179E-03  1.70378263E+07  0.00000000E+00  0.00000000E+00  1.70378263E+07
        81   38       1.74268553E-01  0.00000000E+00  0.00000000E+00  7.25946908E+08  7.25946908E+08
        81   39       1.81699861E-03  0.00000000E+00  0.00000000E+00  1.36194785E+07  1.36194785E+07
        81   41       8.32675018E-05  0.00000000E+00  0.00000000E+00  7.48419975E+05  7.48419975E+05
        81   62       1.72641594E-01  0.00000000E+00  2.08781393E+09  0.00000000E+00  2.08781393E+09
        81   97       2.62639566E-03  3.47244059E+07  0.00000000E+00  0.00000000E+00  3.47244059E+07
        81   98       1.12922266E-05  1.94313494E+05  0.00000000E+00  0.00000000E+00  1.94313494E+05
        94   49       1.22143209E-01  0.00000000E+00  0.00000000E+00  1.25965205E+08  1.25965205E+08
        94   82       3.39098894E-05  5.04220252E+04  0.00000000E+00  0.00000000E+00  5.04220252E+04
        94   70       3.39098894E-05  0.00000000E+00  5.04220252E+04  0.00000000E+00  5.04220252E+04
        94   72       2.32958667E-04  0.00000000E+00  5.18706833E+05  0.00000000E+00  5.18706833E+05
        94   84       2.32958667E-04  5.18706833E+05  0.00000000E+00  0.00000000E+00  5.18706833E+05
        94   73       6.27143186E-05  0.00000000E+00  1.73070997E+05  0.00000000E+00  1.73070997E+05
        94   85       6.27143186E-05  1.73070997E+05  0.00000000E+00  0.00000000E+00  1.73070997E+05
        94   50       9.42824290E-04  0.00000000E+00  0.00000000E+00  4.67959572E+06  4.67959572E+06
        94   86       1.30791215E-04  8.65479117E+05  0.00000000E+00  0.00000000E+00  8.65479117E+05
        94   74       1.30791215E-04  0.00000000E+00  8.65479117E+05  0.00000000E+00  8.65479117E+05
        94   52       2.22827950E-03  0.00000000E+00  0.00000000E+00  2.86594824E+07  2.86594824E+07
        76   89       1.10971864E-04  1.87032581E+04  0.00000000E+00  0.00000000E+00  1.87032581E+04
        76   55       1.10971864E-04  0.00000000E+00  1.87032581E+04  0.00000000E+00  1.87032581E+04
        76   31       2.47865126E-05  0.00000000E+00  0.00000000E+00  7.31097337E+03  7.31097337E+03
        76   56       2.08105436E-05  0.00000000E+00  9.85314426E+03  0.00000000E+00  9.85314426E+03
        76   32       1.69711366E-02  0.00000000E+00  0.00000000E+00  2.33705382E+07  2.33705382E+07
        76   90       6.40892733E-03  2.52704021E+07  0.00000000E+00  0.00000000E+00  2.52704021E+07
        76   33       1.40449279E-01  0.00000000E+00  0.00000000E+00  9.21839468E+08  9.21839468E+08
        76   34       1.01585272E-02  0.00000000E+00  0.00000000E+00  8.14578084E+07  8.14578084E+07
        76   57       1.77087630E-03  0.00000000E+00  2.16865602E+07  0.00000000E+00  2.16865602E+07
        76   91       1.77087630E-03  2.16865602E+07  0.00000000E+00  0.00000000E+00  2.16865602E+07
        76   92       5.60860645E-05  9.96044601E+05  0.00000000E+00  0.00000000E+00  9.96044601E+05
        64   89       1.10971864E-04  0.00000000E+00  1.87032581E+04  0.00000000E+00  1.87032581E+04
        64   55       1.10971864E-04  1.87032581E+04  0.00000000E+00  0.00000000E+00  1.87032581E+04
        64   19       2.47865126E-05  0.00000000E+00  0.00000000E+00  7.31097337E+03  7.31097337E+03
        64   56       2.08105436E-05  9.85314426E+03  0.00000000E+00  0.00000000E+00  9.85314426E+03
        64   20       1.69711366E-02  0.00000000E+00  0.00000000E+00  2.33705382E+07  2.33705382E+07
        64   90       6.40892733E-03  0.00000000E+00  2.52704021E+07  0.00000000E+00  2.52704021E+07
        64   21       1.40449279E-01  0.00000000E+00  0.00000000E+00  9.21839468E+08  9.21839468E+08
        64   22       1.01585272E-02  0.00000000E+00  0.00000000E+00  8.14578084E+07  8.14578084E+07
        64   57       1.77087630E-03  2.16865602E+07  0.00000000E+00  0.00000000E+00  2.16865602E+07
        64   91       1.77087630E-03  0.00000000E+00  2.16865602E+07  0.00000000E+00  2.16865602E+07
        64   92       5.60860645E-05  0.00000000E+00  9.96044601E+05  0.00000000E+00  9.96044601E+05
        24   49       3.39160387E-05  0.00000000E+00  1.82065384E+04  0.00000000E+00  1.82065384E+04
        24   70       4.60183983E-03  0.00000000E+00  0.00000000E+00  4.03640755E+06  4.03640755E+06
        24   72       2.55147549E-05  0.00000000E+00  0.00000000E+00  3.73148375E+04  3.73148375E+04
        24   73       1.40930526E-03  0.00000000E+00  0.00000000E+00  2.67756717E+06  2.67756717E+06
        24   50       1.79363310E-03  0.00000000E+00  6.78545736E+06  0.00000000E+00  6.78545736E+06
        24   13       1.11245840E-03  5.72129670E+06  0.00000000E+00  0.00000000E+00  5.72129670E+06
        24   51       1.11245840E-03  0.00000000E+00  5.72129670E+06  0.00000000E+00  5.72129670E+06
        24   74       1.74650245E-01  0.00000000E+00  0.00000000E+00  9.15525477E+08  9.15525477E+08
        24   14       3.38672025E-04  1.77656570E+06  0.00000000E+00  0.00000000E+00  1.77656570E+06
        24   52       4.81921226E-02  0.00000000E+00  5.25917138E+08  0.00000000E+00  5.25917138E+08
        24   15       4.67303502E-02  5.14917980E+08  0.00000000E+00  0.00000000E+00  5.14917980E+08
        24   53       4.67303502E-02  0.00000000E+00  5.14917980E+08  0.00000000E+00  5.14917980E+08
        36   49       3.39160387E-05  1.82065384E+04  0.00000000E+00  0.00000000E+00  1.82065384E+04
        36   82       4.60183983E-03  0.00000000E+00  0.00000000E+00  4.03640755E+06  4.03640755E+06
        36   84       2.55147549E-05  0.00000000E+00  0.00000000E+00  3.73148375E+04  3.73148375E+04
        36   85       1.40930526E-03  0.00000000E+00  0.00000000E+00  2.67756717E+06  2.67756717E+06
        36   50       1.79363310E-03  6.78545736E+06  0.00000000E+00  0.00000000E+00  6.78545736E+06
        36   13       1.11245840E-03  0.00000000E+00  5.72129670E+06  0.00000000E+00  5.72129670E+06
        36   51       1.11245840E-03  5.72129670E+06  0.00000000E+00  0.00000000E+00  5.72129670E+06
        36   86       1.74650245E-01  0.00000000E+00  0.00000000E+00  9.15525477E+08  9.15525477E+08
        36   14       3.38672025E-04  0.00000000E+00  1.77656570E+06  0.00000000E+00  1.77656570E+06
        36   52       4.81921226E-02  5.25917138E+08  0.00000000E+00  0.00000000E+00  5.25917138E+08
        36   15       4.67303502E-02  0.00000000E+00  5.14917980E+08  0.00000000E+00  5.14917980E+08
        36   53       4.67303502E-02  5.14917980E+08  0.00000000E+00  0.00000000E+00  5.14917980E+08
        89   44       1.14217307E-01  0.00000000E+00  0.00000000E+00  8.46002067E+07  8.46002067E+07
        89   78       2.44270400E-04  4.58174651E+05  0.00000000E+00  0.00000000E+00  4.58174651E+05
        89   66       2.44270400E-04  0.00000000E+00  4.58174651E+05  0.00000000E+00  4.58174651E+05
        89   67       2.18874155E-05  0.00000000E+00  5.29437064E+04  0.00000000E+00  5.29437064E+04
        89   79       2.18874155E-05  5.29437064E+04  0.00000000E+00  0.00000000E+00  5.29437064E+04
        89   80       1.87798654E-03  1.03156208E+07  0.00000000E+00  0.00000000E+00  1.03156208E+07
        89   68       1.87798654E-03  0.00000000E+00  1.03156208E+07  0.00000000E+00  1.03156208E+07
        89   45       1.35110653E-03  0.00000000E+00  0.00000000E+00  7.56367041E+06  7.56367041E+06
        55    3       1.14217307E-01  0.00000000E+00  0.00000000E+00  8.46002067E+07  8.46002067E+07
        55   78       2.44270400E-04  0.00000000E+00  4.58174651E+05  0.00000000E+00  4.58174651E+05
        55   66       2.44270400E-04  4.58174651E+05  0.00000000E+00  0.00000000E+00  4.58174651E+05
        55   67       2.18874155E-05  5.29437064E+04  0.00000000E+00  0.00000000E+00  5.29437064E+04
        55   79       2.18874155E-05  0.00000000E+00  5.29437064E+04  0.00000000E+00  5.29437064E+04
        55   80       1.87798654E-03  0.00000000E+00  1.03156208E+07  0.00000000E+00  1.03156208E+07
        55   68       1.87798654E-03  1.03156208E+07  0.00000000E+00  0.00000000E+00  1.03156208E+07
        55    6       1.35110653E-03  0.00000000E+00  0.00000000E+00  7.56367041E+06  7.56367041E+06
        55    9       7.63550774E-02  0.00000000E+00  0.00000000E+00  1.16615990E+09  1.16615990E+09
        31   77       5.84651108E-03  0.00000000E+00  0.00000000E+00  4.24288584E+06  4.24288584E+06
        31    5       1.34581710E-04  0.00000000E+00  1.51277112E+05  0.00000000E+00  1.51277112E+05
        31   79       1.32851184E-03  0.00000000E+00  0.00000000E+00  2.68908963E+06  2.68908963E+06
        31   80       1.29907424E-01  0.00000000E+00  0.00000000E+00  6.35131977E+08  6.35131977E+08
        31   45       2.08860564E-03  1.04188096E+07  0.00000000E+00  0.00000000E+00  1.04188096E+07
        31    6       2.08860564E-03  0.00000000E+00  1.04188096E+07  0.00000000E+00  1.04188096E+07
        31    7       1.17099631E-04  0.00000000E+00  5.90889824E+05  0.00000000E+00  5.90889824E+05
        31    8       5.09409063E-03  0.00000000E+00  2.84664365E+07  0.00000000E+00  2.84664365E+07
        31   46       8.91411967E-02  9.16263028E+08  0.00000000E+00  0.00000000E+00  9.16263028E+08
        31   47       5.96419030E-04  7.31313552E+06  0.00000000E+00  0.00000000E+00  7.31313552E+06
        31    9       7.36143995E-02  0.00000000E+00  1.04932167E+09  0.00000000E+00  1.04932167E+09
        31   10       7.74041425E-02  0.00000000E+00  1.15138471E+09  0.00000000E+00  1.15138471E+09
        31   11       1.79958189E-02  0.00000000E+00  3.02856579E+08  0.00000000E+00  3.02856579E+08
        19   65       5.84651108E-03  0.00000000E+00  0.00000000E+00  4.24288584E+06  4.24288584E+06
        19    5       1.34581710E-04  1.51277112E+05  0.00000000E+00  0.00000000E+00  1.51277112E+05
        19   67       1.32851184E-03  0.00000000E+00  0.00000000E+00  2.68908963E+06  2.68908963E+06
        19   68       1.29907424E-01  0.00000000E+00  0.00000000E+00  6.35131977E+08  6.35131977E+08
        19   45       2.08860564E-03  0.00000000E+00  1.04188096E+07  0.00000000E+00  1.04188096E+07
        19    6       2.08860564E-03  1.04188096E+07  0.00000000E+00  0.00000000E+00  1.04188096E+07
        19    7       1.17099631E-04  5.90889824E+05  0.00000000E+00  0.00000000E+00  5.90889824E+05
        19    8       5.09409063E-03  2.84664365E+07  0.00000000E+00  0.00000000E+00  2.84664365E+07
        19   46       8.91411967E-02  0.00000000E+00  9.16263028E+08  0.00000000E+00  9.16263028E+08
        19   47       5.96419030E-04  0.00000000E+00  7.31313552E+06  0.00000000E+00  7.31313552E+06
        19    9       7.36143995E-02  1.04932167E+09  0.00000000E+00  0.00000000E+00  1.04932167E+09
        19   10       7.74041426E-02  1.15138471E+09  0.00000000E+00  0.00000000E+00  1.15138471E+09
        19   11       1.79958189E-02  3.02856579E+08  0.00000000E+00  0.00000000E+00  3.02856579E+08
        56    4       5.09017747E-02  0.00000000E+00  0.00000000E+00  2.09073113E+07  2.09073113E+07
        56    5       5.51194185E-02  0.00000000E+00  0.00000000E+00  4.61699033E+07  4.61699033E+07
        56   67       8.42630787E-05  1.37567601E+05  0.00000000E+00  0.00000000E+00  1.37567601E+05
        56   79       8.42630787E-05  0.00000000E+00  1.37567601E+05  0.00000000E+00  1.37567601E+05
        56   80       2.73682960E-03  0.00000000E+00  1.16833810E+07  0.00000000E+00  1.16833810E+07
        56   68       2.73682960E-03  1.16833810E+07  0.00000000E+00  0.00000000E+00  1.16833810E+07
        56    7       1.12528202E-03  0.00000000E+00  0.00000000E+00  4.96887321E+06  4.96887321E+06
        56    8       6.57793691E-04  0.00000000E+00  0.00000000E+00  3.23875135E+06  3.23875135E+06
        56   10       5.22277983E-02  0.00000000E+00  0.00000000E+00  7.19573469E+08  7.19573469E+08
        56   11       1.06220295E-02  0.00000000E+00  0.00000000E+00  1.66348337E+08  1.66348337E+08
        87   99       1.41644963E-03  1.22662900E+05  0.00000000E+00  0.00000000E+00  1.22662900E+05
        87   42       1.01601360E-01  0.00000000E+00  0.00000000E+00  1.90888560E+08  1.90888560E+08
        75   99       1.41644963E-03  0.00000000E+00  1.22662900E+05  0.00000000E+00  1.22662900E+05
        75   30       1.01601360E-01  0.00000000E+00  0.00000000E+00  1.90888560E+08  1.90888560E+08
        49   37       6.43505547E-05  3.45388783E+01  0.00000000E+00  0.00000000E+00  3.45388783E+01
        49   25       6.43505547E-05  0.00000000E+00  3.45388783E+01  0.00000000E+00  3.45388783E+01
        49   38       5.29918727E-04  3.54671717E+05  0.00000000E+00  0.00000000E+00  3.54671717E+05
        49   26       5.29918727E-04  0.00000000E+00  3.54671717E+05  0.00000000E+00  3.54671717E+05
        49   39       1.91537134E-04  4.39569956E+05  0.00000000E+00  0.00000000E+00  4.39569956E+05
        49   27       1.91537134E-04  0.00000000E+00  4.39569956E+05  0.00000000E+00  4.39569956E+05
        49   41       1.40018330E-03  4.41208556E+06  0.00000000E+00  0.00000000E+00  4.41208556E+06
        49   29       1.40018330E-03  0.00000000E+00  4.41208556E+06  0.00000000E+00  4.41208556E+06
        49   97       2.43744308E-05  0.00000000E+00  0.00000000E+00  1.41947374E+05  1.41947374E+05
        37   85       2.33019621E-04  0.00000000E+00  0.00000000E+00  9.03063687E+04  9.03063687E+04
        37   50       2.29083977E-04  3.23954584E+05  0.00000000E+00  0.00000000E+00  3.23954584E+05
        37   13       8.08007336E-04  0.00000000E+00  1.84712604E+06  0.00000000E+00  1.84712604E+06
        37   51       8.08007336E-04  1.84712604E+06  0.00000000E+00  0.00000000E+00  1.84712604E+06
        37   14       4.90596344E-04  0.00000000E+00  1.15520745E+06  0.00000000E+00  1.15520745E+06
        37   52       4.71726047E-03  3.06169953E+07  0.00000000E+00  0.00000000E+00  3.06169953E+07
        37   15       1.99614502E-03  0.00000000E+00  1.31191008E+07  0.00000000E+00  1.31191008E+07
        37   53       1.99614502E-03  1.31191008E+07  0.00000000E+00  0.00000000E+00  1.31191008E+07
        25   73       2.33019621E-04  0.00000000E+00  0.00000000E+00  9.03063687E+04  9.03063687E+04
        25   50       2.29083977E-04  0.00000000E+00  3.23954584E+05  0.00000000E+00  3.23954584E+05
        25   13       8.08007336E-04  1.84712604E+06  0.00000000E+00  0.00000000E+00  1.84712604E+06
        25   51       8.08007336E-04  0.00000000E+00  1.84712604E+06  0.00000000E+00  1.84712604E+06
        25   14       4.90596344E-04  1.15520745E+06  0.00000000E+00  0.00000000E+00  1.15520745E+06
        25   52       4.71726047E-03  0.00000000E+00  3.06169953E+07  0.00000000E+00  3.06169953E+07
        25   15       1.99614502E-03  1.31191008E+07  0.00000000E+00  0.00000000E+00  1.31191008E+07
        25   53       1.99614502E-03  0.00000000E+00  1.31191008E+07  0.00000000E+00  1.31191008E+07
        82   60       4.55476356E-04  0.00000000E+00  6.05101111E+04  0.00000000E+00  6.05101111E+04
        82   95       4.55476356E-04  6.05101111E+04  0.00000000E+00  0.00000000E+00  6.05101111E+04
        82   61       1.98958591E-04  0.00000000E+00  3.94195329E+04  0.00000000E+00  3.94195329E+04
        82   96       5.55417427E-04  1.59099966E+05  0.00000000E+00  0.00000000E+00  1.59099966E+05
        82   38       2.62410563E-04  0.00000000E+00  0.00000000E+00  9.90009378E+04  9.90009378E+04
        82   39       6.75331352E-02  0.00000000E+00  0.00000000E+00  1.16076859E+08  1.16076859E+08
        82   41       1.76843245E-02  0.00000000E+00  0.00000000E+00  4.36595437E+07  4.36595437E+07
        82   97       3.14489846E-04  1.53508290E+06  0.00000000E+00  0.00000000E+00  1.53508290E+06
        82   63       2.49823176E-03  0.00000000E+00  1.36530275E+07  0.00000000E+00  1.36530275E+07
        82   98       4.70208076E-05  3.48248885E+05  0.00000000E+00  0.00000000E+00  3.48248885E+05
        70   60       4.55476356E-04  6.05101111E+04  0.00000000E+00  0.00000000E+00  6.05101111E+04
        70   95       4.55476356E-04  0.00000000E+00  6.05101111E+04  0.00000000E+00  6.05101111E+04
        70   61       1.98958591E-04  3.94195329E+04  0.00000000E+00  0.00000000E+00  3.94195329E+04
        70   96       5.55417427E-04  0.00000000E+00  1.59099966E+05  0.00000000E+00  1.59099966E+05
        70   26       2.62410563E-04  0.00000000E+00  0.00000000E+00  9.90009377E+04  9.90009377E+04
        70   27       6.75331352E-02  0.00000000E+00  0.00000000E+00  1.16076859E+08  1.16076859E+08
        70   29       1.76843245E-02  0.00000000E+00  0.00000000E+00  4.36595437E+07  4.36595437E+07
        70   97       3.14489846E-04  0.00000000E+00  1.53508290E+06  0.00000000E+00  1.53508290E+06
        70   63       2.49823176E-03  1.36530275E+07  0.00000000E+00  0.00000000E+00  1.36530275E+07
        70   98       4.70208076E-05  0.00000000E+00  3.48248885E+05  0.00000000E+00  3.48248885E+05
        32   44       2.91364414E-04  2.78028861E+03  0.00000000E+00  0.00000000E+00  2.78028861E+03
        32    3       2.91364414E-04  0.00000000E+00  2.78028861E+03  0.00000000E+00  2.78028861E+03
        32   77       7.92322643E-05  0.00000000E+00  0.00000000E+00  3.88727924E+03  3.88727924E+03
        32    5       4.46343003E-03  0.00000000E+00  8.24618889E+05  0.00000000E+00  8.24618889E+05
        32   79       9.16790921E-04  0.00000000E+00  0.00000000E+00  5.75553699E+05  5.75553699E+05
        32   80       1.67679583E-03  0.00000000E+00  0.00000000E+00  4.18990238E+06  4.18990238E+06
        32   45       1.42412584E-03  3.65983502E+06  0.00000000E+00  0.00000000E+00  3.65983502E+06
        32    6       1.42412584E-03  0.00000000E+00  3.65983502E+06  0.00000000E+00  3.65983502E+06
        32    7       4.12036958E-04  0.00000000E+00  1.07595176E+06  0.00000000E+00  1.07595176E+06
        32    8       1.33432841E-04  0.00000000E+00  4.00984326E+05  0.00000000E+00  4.00984326E+05
        32   46       9.92278095E-03  6.58282572E+07  0.00000000E+00  0.00000000E+00  6.58282572E+07
        32   47       1.74938770E-04  1.44224709E+06  0.00000000E+00  0.00000000E+00  1.44224709E+06
        32    9       3.45840270E-05  0.00000000E+00  3.42092807E+05  0.00000000E+00  3.42092807E+05
        32   10       2.82586686E-04  0.00000000E+00  2.94166768E+06  0.00000000E+00  2.94166768E+06
        32   11       3.06097286E-05  0.00000000E+00  3.68985453E+05  0.00000000E+00  3.68985453E+05
        20   44       2.91364414E-04  0.00000000E+00  2.78028861E+03  0.00000000E+00  2.78028861E+03
        20    3       2.91364414E-04  2.78028861E+03  0.00000000E+00  0.00000000E+00  2.78028861E+03
        20   65       7.92322643E-05  0.00000000E+00  0.00000000E+00  3.88727924E+03  3.88727924E+03
        20    5       4.46343003E-03  8.24618889E+05  0.00000000E+00  0.00000000E+00  8.24618889E+05
        20   67       9.16790922E-04  0.00000000E+00  0.00000000E+00  5.75553699E+05  5.75553699E+05
        20   68       1.67679583E-03  0.00000000E+00  0.00000000E+00  4.18990238E+06  4.18990238E+06
        20   45       1.42412584E-03  0.00000000E+00  3.65983502E+06  0.00000000E+00  3.65983502E+06
        20    6       1.42412584E-03  3.65983502E+06  0.00000000E+00  0.00000000E+00  3.65983502E+06
        20    7       4.12036958E-04  1.07595176E+06  0.00000000E+00  0.00000000E+00  1.07595176E+06
        20    8       1.33432841E-04  4.00984326E+05  0.00000000E+00  0.00000000E+00  4.00984326E+05
        20   46       9.92278095E-03  0.00000000E+00  6.58282572E+07  0.00000000E+00  6.58282572E+07
        20   47       1.74938770E-04  0.00000000E+00  1.44224709E+06  0.00000000E+00  1.44224709E+06
        20    9       3.45840270E-05  3.42092807E+05  0.00000000E+00  0.00000000E+00  3.42092807E+05
        20   10       2.82586686E-04  2.94166768E+06  0.00000000E+00  0.00000000E+00  2.94166768E+06
        20   11       3.06097286E-05  3.68985453E+05  0.00000000E+00  0.00000000E+00  3.68985453E+05
        44   22       6.17859055E-04  0.00000000E+00  1.50468425E+06  0.00000000E+00  1.50468425E+06
        44   34       6.17859055E-04  1.50468425E+06  0.00000000E+00  0.00000000E+00  1.50468425E+06
        44   35       1.03505940E-03  3.67632239E+06  0.00000000E+00  0.00000000E+00  3.67632239E+06
        44   23       1.03505940E-03  0.00000000E+00  3.67632239E+06  0.00000000E+00  3.67632239E+06
        44   91       1.70548789E-04  0.00000000E+00  0.00000000E+00  8.46820455E+05  8.46820455E+05
         3   22       6.17859055E-04  1.50468425E+06  0.00000000E+00  0.00000000E+00  1.50468425E+06
         3   34       6.17859055E-04  0.00000000E+00  1.50468425E+06  0.00000000E+00  1.50468425E+06
         3   35       1.03505940E-03  0.00000000E+00  3.67632239E+06  0.00000000E+00  3.67632239E+06
         3   23       1.03505940E-03  3.67632239E+06  0.00000000E+00  0.00000000E+00  3.67632239E+06
         3   57       1.70548789E-04  0.00000000E+00  0.00000000E+00  8.46820455E+05  8.46820455E+05
         4   33       3.85524438E-04  0.00000000E+00  5.86065096E+05  0.00000000E+00  5.86065096E+05
         4   21       3.85524438E-04  5.86065096E+05  0.00000000E+00  0.00000000E+00  5.86065096E+05
         4   22       9.11861911E-05  2.05920528E+05  0.00000000E+00  0.00000000E+00  2.05920528E+05
         4   34       9.11861911E-05  0.00000000E+00  2.05920528E+05  0.00000000E+00  2.05920528E+05
        83   60       1.42428952E-04  0.00000000E+00  1.74532757E+03  0.00000000E+00  1.74532757E+03
        83   95       1.42428952E-04  1.74532757E+03  0.00000000E+00  0.00000000E+00  1.74532757E+03
        83   40       8.26558747E-02  0.00000000E+00  0.00000000E+00  1.33496751E+08  1.33496751E+08
        83   98       1.31897565E-03  8.03168832E+06  0.00000000E+00  0.00000000E+00  8.03168832E+06
        71   60       1.42428952E-04  1.74532757E+03  0.00000000E+00  0.00000000E+00  1.74532757E+03
[...]
        77   92            92.190181  1.03514539E-04  1.32544102E-03
        65   90           530.588275  5.21739430E-04  8.27385238E-05
        65   21            19.420373  4.28285202E-03  5.31505567E-03
        65   22            69.280980  6.36975534E-02  3.76282990E-02
        65   92            92.190181  1.03514539E-04  1.32544102E-03
        72   61      --------------- below threshold  8.10669772E-05
        72   96      ---------------  3.02789453E-04 below threshold
        72   26            89.367167  2.68781661E-05  2.52784628E-04
        72   27            33.104609  3.95137603E-03  2.96862450E-03
        72   29            52.822612  6.84407313E-02  4.47844271E-02
        72   97            30.465356  2.20830589E-02  1.69263777E-02
        72   63            15.203485  1.03914336E-03  1.22545527E-03
        72   98           351.696820  2.21940406E-04  4.91348171E-05
        84   61      --------------- below threshold  8.10669772E-05
        84   96      ---------------  3.02789453E-04 below threshold
        84   38            89.367167  2.68781661E-05  2.52784628E-04
        84   39            33.104609  3.95137603E-03  2.96862450E-03
        84   41            52.822612  6.84407313E-02  4.47844271E-02
        84   97            30.465356  2.20830589E-02  1.69263777E-02
        84   63            15.203485  1.03914336E-03  1.22545527E-03
        84   98           351.696820  2.21940406E-04  4.91348171E-05
        60   73            98.293727  1.15471388E-05  6.76746267E-04
        60   85            98.293727  1.15471388E-05  6.76746267E-04
        60   13            44.455524  9.99302633E-04  1.79910355E-03
        60   86            98.358825  5.71545664E-05  3.48254032E-03
        60   74            98.358825  5.71545664E-05  3.48254032E-03
        60   15            45.804502  1.07999631E-02  1.99277863E-02
        95   73            98.293727  1.15471388E-05  6.76746267E-04
        95   85            98.293727  1.15471388E-05  6.76746267E-04
        95   51            44.455524  9.99302633E-04  1.79910355E-03
        95   86            98.358825  5.71545664E-05  3.48254032E-03
        95   74            98.358825  5.71545664E-05  3.48254032E-03
        95   53            45.804502  1.07999631E-02  1.99277863E-02
        73   61      --------------- below threshold  3.63247462E-01
        73   96      --------------- below threshold  1.13872864E-02
        73   26            99.419768  1.61922237E-04  2.79064742E-02
        73   27            20.660104  7.45765393E-04  9.39962654E-04
        73   29           160.650186  1.30455725E-04  5.00501177E-05
        73   62            39.900661  2.59424922E-04  4.31660195E-04
        73   97            34.089047  3.37168876E-04  5.11552119E-04
        73   63            71.994329  6.45862776E-05  3.75513995E-05
        73   98           654.719310  1.82461633E-03  2.41760918E-04
        85   61      --------------- below threshold  3.63247462E-01
        85   96      --------------- below threshold  1.13872864E-02
        85   38            99.419768  1.61922237E-04  2.79064742E-02
        85   39            20.660104  7.45765393E-04  9.39962654E-04
        85   41           160.650186  1.30455725E-04  5.00501177E-05
        85   62            39.900661  2.59424922E-04  4.31660195E-04
        85   97            34.089047  3.37168876E-04  5.11552119E-04
        85   63            71.994329  6.45862776E-05  3.75513995E-05
        85   98           654.719310  1.82461633E-03  2.41760918E-04
        61   86            98.835871  4.07430926E-05  3.49987700E-03
        61   74            98.835871  4.07430926E-05  3.49987700E-03
        61   14            43.054450  1.09796873E-03  1.92810277E-03
         5   33            94.447961  6.20440772E-04  1.11750079E-02
         5   21            94.447961  6.20440772E-04  1.11750079E-02
         5   22            74.939311  3.11673497E-04  1.24367487E-03
         5   34            74.939311  3.11673497E-04  1.24367487E-03
        96   50      ---------------  1.71345808E-04 below threshold
        96   86            99.658869  3.30114869E-05  9.67705728E-03
        96   74            99.658869  3.30114869E-05  9.67705728E-03
        96   52           366.710262  9.54228024E-03  2.04458334E-03
        38   50            95.160275  1.08419491E-05  2.24019961E-04
        38   13            86.971394  2.47557558E-05  1.90010782E-04
        38   51            86.971394  2.47557558E-05  1.90010782E-04
        38   86            95.862523  7.76453966E-05  1.87663633E-03
        38   14      ---------------  8.94320490E-05 below threshold
        38   52          2221.937937  2.70405778E-03  1.16456936E-04
        38   15           281.821746  1.32674934E-03  3.47478727E-04
        38   53           281.821746  1.32674934E-03  3.47478727E-04
        26   50            95.160275  1.08419491E-05  2.24019961E-04
        26   13            86.971394  2.47557558E-05  1.90010782E-04
        26   51            86.971394  2.47557558E-05  1.90010782E-04
        26   74            95.862523  7.76453966E-05  1.87663633E-03
        26   14      ---------------  8.94320490E-05 below threshold
        26   52          2221.937937  2.70405778E-03  1.16456936E-04
        26   15           281.821746  1.32674934E-03  3.47478727E-04
        26   53           281.821746  1.32674934E-03  3.47478727E-04
        78   35            47.004313  9.89002535E-02  6.72771101E-02
        78   57           187.639526  6.01507560E-03  2.09118534E-03
        78   91           187.639526  6.01507560E-03  2.09118534E-03
        66   23            47.004313  9.89002535E-02  6.72771101E-02
        66   57           187.639526  6.01507560E-03  2.09118534E-03
        66   91           187.639526  6.01507560E-03  2.09118534E-03
        54   42            98.811498  1.78753980E-04  1.50402738E-02
        54   30            98.811498  1.78753980E-04  1.50402738E-02
        16   42            98.811498  1.78753980E-04  1.50402738E-02
        16   30            98.811498  1.78753980E-04  1.50402738E-02
        17   42            98.549144  1.19031928E-04  8.20425398E-03
        17   30            98.549144  1.19031928E-04  8.20425399E-03
        67   90      --------------- below threshold  8.04876825E-02
        67   21            89.598498  1.17078813E-03  1.12559531E-02
        67   22            33.507018  2.71474135E-03  4.08274867E-03
        67   57           120.575903  1.02382911E-03  4.64161814E-04
        67   91           120.575903  1.02382911E-03  4.64161814E-04
        67   92          1154.405825  2.68049256E-03  2.13686234E-04
        79   90      --------------- below threshold  8.04876825E-02
        79   33            89.598498  1.17078813E-03  1.12559531E-02
        79   34            33.507018  2.71474135E-03  4.08274867E-03
        79   57           120.575903  1.02382911E-03  4.64161814E-04
        79   91           120.575903  1.02382911E-03  4.64161814E-04
        79   92          1154.405825  2.68049256E-03  2.13686234E-04
        90   80            99.366704  8.10964379E-05  1.28054468E-02
        90   68            99.366704  8.10964379E-05  1.28054468E-02
        90   46            44.038889  1.65105588E-02  1.14625702E-02
        90   47            35.212474  4.02416886E-02  2.97618166E-02
        50   39            96.004098  3.23147195E-04  8.08696570E-03
        50   27            96.004098  3.23147195E-04  8.08696570E-03
        50   41            97.010684  5.05564911E-05  1.69123935E-03
        50   29            97.010684  5.05564911E-05  1.69123935E-03
        50   97            59.610477  3.39037114E-03  8.39418465E-03
        39   13      --------------- below threshold  2.65610562E-03
        39   51      --------------- below threshold  2.65610562E-03
        39   86            92.690320  1.82832909E-04  2.50124351E-03
        39   14      --------------- below threshold  2.62972105E-02
        39   52            64.638159  3.12763808E-03  8.84466985E-03
        27   13      --------------- below threshold  2.65610562E-03
        27   51      --------------- below threshold  2.65610562E-03
        27   74            92.690320  1.82832909E-04  2.50124351E-03
        27   14      --------------- below threshold  2.62972105E-02
        27   52            64.638159  3.12763808E-03  8.84466985E-03
        13   28            98.510086  1.58565786E-04  1.06426115E-02
        13   40            98.510086  1.58565786E-04  1.06426115E-02
        13   41            99.364864  3.99260306E-05  6.28621579E-03
        13   29            99.364864  3.99260306E-05  6.28621579E-03
        51   28            98.510086  1.58565786E-04  1.06426115E-02
        51   40            98.510086  1.58565786E-04  1.06426115E-02
        51   41            99.364864  3.99260306E-05  6.28621579E-03
        51   29            99.364864  3.99260306E-05  6.28621579E-03
        51   98            57.260245  7.84851464E-05  1.83634993E-04
        86   41      --------------- below threshold  3.19346491E-04
        86   62            25.323644  3.56448426E-05  2.84422328E-05
        86   97           487.679910  4.64523082E-04  7.90435532E-05
        86   63      --------------- below threshold  2.24916572E-03
        86   98            91.247945  1.37033110E-04  1.56572494E-03
        74   29      --------------- below threshold  3.19346491E-04
        74   62            25.323644  3.56448426E-05  2.84422328E-05
        74   97           487.679910  4.64523082E-04  7.90435532E-05
        74   63      --------------- below threshold  2.24916572E-03
        74   98            91.247945  1.37033110E-04  1.56572494E-03
        14   41            99.131344  1.13014367E-04  1.30102600E-02
        14   29            99.131344  1.13014367E-04  1.30102600E-02
        14   62            69.161906  1.26448691E-05  4.10040557E-05
        33   80            99.812804  2.77372098E-05  1.48171763E-02
        33   45      ---------------  2.84687480E-05 below threshold
        33    6      ---------------  2.84687480E-05 below threshold
        33    7            98.330791  4.40042157E-05  2.63623115E-03
        33    8            96.306019  1.32047897E-05  3.57467753E-04
        33   46          1682.404757  2.33864226E-03  1.31207137E-04
        33   47      ---------------  1.20924398E-04 below threshold
        33    9            56.173923  2.10171173E-04  4.79557348E-04
        33   10      --------------- below threshold  2.13392550E-03
        33   11           379.238198  8.50506754E-05  1.77470568E-05
        21   68            99.812804  2.77372098E-05  1.48171763E-02
        21   45      ---------------  2.84687480E-05 below threshold
        21    6      ---------------  2.84687480E-05 below threshold
        21    7            98.330791  4.40042157E-05  2.63623115E-03
        21    8            96.306019  1.32047897E-05  3.57467753E-04
        21   46          1682.404758  2.33864226E-03  1.31207137E-04
        21   47      ---------------  1.20924398E-04 below threshold
        21    9            56.173923  2.10171173E-04  4.79557348E-04
        21   10      --------------- below threshold  2.13392550E-03
        21   11           379.238198  8.50506754E-05  1.77470568E-05
        28   15            80.827489  2.02244151E-03  1.05486521E-02
        28   53            80.827489  2.02244151E-03  1.05486521E-02
        40   15            80.827489  2.02244151E-03  1.05486521E-02
        40   53            80.827489  2.02244151E-03  1.05486521E-02
        41   52            46.692865  9.15856303E-05  1.71807453E-04
        41   15            15.608965  4.16877035E-04  3.60592309E-04
        41   53            15.608965  4.16877035E-04  3.60592309E-04
        29   52            46.692865  9.15856303E-05  1.71807453E-04
        29   15            15.608965  4.16877035E-04  3.60592309E-04
        29   53            15.608965  4.16877035E-04  3.60592309E-04
        80   34            46.363436  9.30389858E-04  1.73461869E-03
        80   57            56.031868  5.31687476E-04  1.20925645E-03
        80   91            56.031868  5.31687476E-04  1.20925645E-03
        80   92            88.896942  2.23421215E-04  2.01224941E-03
        68   22            46.363436  9.30389858E-04  1.73461869E-03
        68   57            56.031868  5.31687476E-04  1.20925645E-03
        68   91            56.031868  5.31687476E-04  1.20925645E-03
        68   92            88.896942  2.23421215E-04  2.01224941E-03
        45   22            99.865138  1.78630035E-05  1.32453774E-02
        45   34            99.865138  1.78630035E-05  1.32453774E-02
        45   35            97.373346  2.50433216E-04  9.53430467E-03
        45   23            97.373346  2.50433216E-04  9.53430467E-03
        45   91            71.285825  2.58363269E-03  8.99776045E-03
         6   22            99.865138  1.78630035E-05  1.32453774E-02
         6   34            99.865138  1.78630035E-05  1.32453774E-02
         6   35            97.373346  2.50433216E-04  9.53430467E-03
         6   23            97.373346  2.50433216E-04  9.53430467E-03
         6   57            71.285825  2.58363269E-03  8.99776045E-03
         7   22            99.944882  2.24459632E-05  4.07234911E-02
         7   34            99.944882  2.24459632E-05  4.07234911E-02
        22    8      --------------- below threshold  1.04562317E-02
        22   46            66.169203  5.42129560E-03  1.60247350E-02
        22   47           140.122857  1.58034131E-03  6.58138642E-04
        22    9            24.184513  1.76863917E-04  2.33282043E-04
        22   10            81.103458  5.14696578E-04  2.72376072E-03
        22   11            82.925415  7.43175758E-04  4.35252606E-03
        34    8      --------------- below threshold  1.04562317E-02
        34   46            66.169203  5.42129560E-03  1.60247350E-02
        34   47           140.122857  1.58034131E-03  6.58138642E-04
        34    9            24.184513  1.76863917E-04  2.33282043E-04
        34   10            81.103458  5.14696578E-04  2.72376072E-03
        34   11            82.925415  7.43175758E-04  4.35252606E-03
        35    9            98.569117  5.66717720E-05  3.96061479E-03
        35   12           484.843490  1.45350315E-03  2.48528568E-04
        23    9            98.569117  5.66717720E-05  3.96061479E-03
        23   12           484.843490  1.45350315E-03  2.48528568E-04
        97   52            99.203380  3.03254170E-04  3.80675997E-02
        57    9            62.478001  2.34013334E-02  6.23669691E-02
        53   98            89.969915  3.32384288E-05  3.31387320E-04
        46   92            58.705525  7.61545897E-04  1.84418351E-03
        47   92            87.944020  2.17308399E-04  1.80249474E-03
     ---------------------------------------------------------------

 Number of problematic transitions =                   538

--

 Electric-dipole - electric-octupole not included
 Electric-dipole - magnetic-quadrupole not included


      ****************************************************************************************************
      *                                                                                                  *
      *                                    Special properties section                                    *
      *                                                                                                  *
      ****************************************************************************************************


++ I/O STATISTICS
 
  I. General I/O information
  - - - - - - - - - - - - - - - - - - - - - - - - - - - - - - - - - - - - - - - - - - -
  Unit  Name          Flsize      Write/Read            MBytes           Write/Read
                      (MBytes)       Calls              In/Out           Time, sec.
  - - - - - - - - - - - - - - - - - - - - - - - - - - - - - - - - - - - - - - - - - - -
   1  RUNFILE           0.99 .     266/  263081 .      2.5/   1903.2 .       0/       0
   2  ANNI              0.00 .       0/       0 .      0.0/      0.0 .       0/       0
   3  ONEINT            1.54 .       0/  126040 .      0.0/ 152831.4 .       0/      19
   4  JOBIPH            1.52 .       0/     651 .      0.0/      1.5 .       0/       0
   5  JOBIPH01          1.22 .       0/     219 .      0.0/      1.3 .       0/       0
   6  JOBIPH02          1.22 .       0/     219 .      0.0/      1.3 .       0/       0
   7  JOBIPH03          1.28 .       0/     315 .      0.0/      1.4 .       0/       0
   8  JOBIPH04          1.32 .       0/     363 .      0.0/      1.4 .       0/       0
   9  JOBIPH05          1.15 .       0/     123 .      0.0/      1.3 .       0/       0
  10  JOBIPH06          1.28 .       0/     315 .      0.0/      1.4 .       0/       0
  11  JOBIPH07          1.32 .       0/     363 .      0.0/      1.4 .       0/       0
  12  JOBIPH08          1.15 .       0/     123 .      0.0/      1.3 .       0/       0
  13  JOBIPH09          1.28 .       0/     315 .      0.0/      1.4 .       0/       0
  14  JOBIPH10          1.32 .       0/     363 .      0.0/      1.4 .       0/       0
  15  JOBIPH11          1.15 .       0/     123 .      0.0/      1.3 .       0/       0
  16  JOBIPH12          1.22 .       0/     219 .      0.0/      1.3 .       0/       0
  17  JOBIPH13          1.32 .       0/     363 .      0.0/      1.4 .       0/       0
  18  JOBIPH14          1.28 .       0/     315 .      0.0/      1.4 .       0/       0
  19  JOBIPH15          1.32 .       0/     363 .      0.0/      1.4 .       0/       0
  20  JOBIPH16          1.15 .       0/     123 .      0.0/      1.3 .       0/       0
  21  JOBIPH17          1.28 .       0/     315 .      0.0/      1.4 .       0/       0
  22  JOBIPH18          1.32 .       0/     363 .      0.0/      1.4 .       0/       0
  23  JOBIPH19          1.15 .       0/     123 .      0.0/      1.3 .       0/       0
  24  JOBIPH20          1.28 .       0/     315 .      0.0/      1.4 .       0/       0
  25  JOBIPH21          1.32 .       0/     363 .      0.0/      1.4 .       0/       0
  26  JOBIPH22          1.15 .       0/     123 .      0.0/      1.3 .       0/       0
  - - - - - - - - - - - - - - - - - - - - - - - - - - - - - - - - - - - - - - - - - - -
   *  TOTAL            31.50 .     266/  395598 .      2.5/ 154765.6 .       0/      19
  - - - - - - - - - - - - - - - - - - - - - - - - - - - - - - - - - - - - - - - - - - -
 
  II. I/O Access Patterns
  - - - - - - - - - - - - - - - - - - - -
  Unit  Name               % of random
                         Write/Read calls
  - - - - - - - - - - - - - - - - - - - -
   1  RUNFILE             28.6/  11.1
   2  ANNI                 0.0/   0.0
   3  ONEINT               0.0/  99.3
   4  JOBIPH               0.0/  51.9
   5  JOBIPH01             0.0/  55.7
   6  JOBIPH02             0.0/  55.7
   7  JOBIPH03             0.0/  54.0
   8  JOBIPH04             0.0/  53.4
   9  JOBIPH05             0.0/  60.2
  10  JOBIPH06             0.0/  54.0
  11  JOBIPH07             0.0/  53.4
  12  JOBIPH08             0.0/  60.2
  13  JOBIPH09             0.0/  54.0
  14  JOBIPH10             0.0/  53.4
  15  JOBIPH11             0.0/  60.2
  16  JOBIPH12             0.0/  55.7
  17  JOBIPH13             0.0/  53.4
  18  JOBIPH14             0.0/  54.0
  19  JOBIPH15             0.0/  53.4
  20  JOBIPH16             0.0/  60.2
  21  JOBIPH17             0.0/  54.0
  22  JOBIPH18             0.0/  53.4
  23  JOBIPH19             0.0/  60.2
  24  JOBIPH20             0.0/  54.0
  25  JOBIPH21             0.0/  53.4
  26  JOBIPH22             0.0/  60.2
  - - - - - - - - - - - - - - - - - - - -
--
--- Stop Module: rassi at Thu Apr 17 10:47:24 2025 /rc=_RC_ALL_IS_WELL_ ---
--- Module rassi spent 40 seconds ---

.##################.
.# Happy landing! #.
.##################.

    Timing: Wall=40.51 User=19.70 System=20.42
