   This run of MOLCAS is using the pymolcas driver

                             OPE
                             OPE          NMOL  CASOP  ENMOLC A   SO
                 OPE        NMOLC        AS  OP EN  MO LC     AS  OP
                OPENM       OL CA        SO  PE NM  OL CA     SOP EN
                OP EN      MO   LC       AS  OP ENMOL  CASO   PENMOL
                OP  EN     MO   LC       AS  OP EN     MO     LC ASO
               OP   E  NMOL  C  AS       OP  EN MO     LC     AS  OP
               OP  E   NMO   LC AS        OPEN  MO     LCASOP EN   M
               O  PEN   MO  LCA  SO
            OPE   NMO   L   CAS    OP
        OPENMOL  CASOP     ENMOL   CASOPE
     OPENMOLCA   SOPENMOLCASOPEN   MOLCASOPE
    OPENMOLCAS   OP           EN   MOL    CAS
    OPENMOLCAS       OP  ENM        O     LCA
    OPENMOLCAS    OPEN  MOLCASO     P  E  NMO
    OPENMOLCAS     OP               E  N  MOL
    OPENMOLCA   SO           PENM   O  L  CAS    OPEN    MO    LCAS
    OPENMOLCA   SOP           ENM   O  L  CAS   OP  EN  MOLC  AS   O
    OPENMOLCA   SOPE           NM      O  LCA   S      OP  EN MO
    OPENMOLC                AS         O  PEN   M      OL  CA  SOPE
    OPENMO        LCASOPE  NMOL        C  ASO   P      ENMOLC     AS
    OPE     NMO      LCA  SO     P     E   NM   OL  CA SO  PE N   MO
          OPENMOLCA            SOPE   NMO        LCAS  O    P  ENMO
     OPENMOLCASOPENMOLCASOPENMOLCASOPENMOLCA
        OPENMOLCASOPENMOLCASOPENMOLCASOPE
            OPENMOLCASOPENMOLCASOPENM
               OPENMOLCASOPENMOLCA        version: 25.02
                   OPENMOLCASO
                       OPE                tag: 92-gf4b470f0a

 OpenMolcas is free software; you can redistribute it and/or modify it
 under the terms of the GNU Lesser General Public License version 2.1.
 OpenMolcas is distributed in the hope that it will be useful, but it
 is provided "as is" and without any express or implied warranties.
 For more details see the full text of the license in the file
 LICENSE or in <http://www.gnu.org/licenses/>.

                 Copyright (C) The OpenMolcas Authors
           For the author list and the recommended citation,
                   consult the file CONTRIBUTORS.md

           *************************************************
           * pymolcas version py2.29                       *
           *   build 2ba4516c4d154a59cba941070ba63e2c      *
           *   (after the EMIL interpreter by V. Veryazov) *
           *************************************************

configuration info
------------------
Host name: iftia91.univ.gda.pl (Linux)
C Compiler ID: GNU
C flags: -std=gnu99
Fortran Compiler ID: GNU
Fortran flags: -cpp -fdefault-integer-8 -fmax-stack-var-size=1048576
Definitions: _MOLCAS_;_I8_;_LINUX_
Parallel: OFF (GA=OFF)


   --------------------------------------------------------------------
  |
  |           Project: O2
  |    Submitted from: /scratch/tecumseh/WorkSpace/O2.0.60376
  |      Scratch area: /scratch/tecumseh/WorkSpace/O2.0.60376
  |   Save outputs to: WORKDIR
  |            Molcas: /home/tecumseh/program/OpenMolcas/build
  |
  | Scratch area is NOT empty
  |
  |    MOLCAS_DRIVER = /home/tecumseh/program/OpenMolcas/build/pymolcas
  |    MOLCAS_NPROCS = 1
  |    MOLCAS_SOURCE = /home/tecumseh/program/OpenMolcas/OpenMolcas
  | MOLCAS_STRUCTURE = 0
  |
   --------------------------------------------------------------------

++ ---------   Input file   ---------

>>> COPY $dir/vectors/$Project.$R.1Ag-12S.JobIph $WorkDir/JOBIPH

>>> COPY $dir/vectors/$Project.$R.3Ag-3S.JobIph $WorkDir/JOBIPH01

>>> COPY $dir/vectors/$Project.$R.5Ag-3S.JobIph $WorkDir/JOBIPH02

>>> COPY $dir/vectors/$Project.$R.1B3u-5S.JobIph $WorkDir/JOBIPH03

>>> COPY $dir/vectors/$Project.$R.3B3u-6S.JobIph $WorkDir/JOBIPH04

>>> COPY $dir/vectors/$Project.$R.5B3u-1S.JobIph $WorkDir/JOBIPH05

>>> COPY $dir/vectors/$Project.$R.1B2u-5S.JobIph $WorkDir/JOBIPH06

>>> COPY $dir/vectors/$Project.$R.3B2u-6S.JobIph $WorkDir/JOBIPH07

>>> COPY $dir/vectors/$Project.$R.5B2u-1S.JobIph $WorkDir/JOBIPH08

>>> COPY $dir/vectors/$Project.$R.1B1g-5S.JobIph $WorkDir/JOBIPH09

>>> COPY $dir/vectors/$Project.$R.3B1g-6S.JobIph $WorkDir/JOBIPH10

>>> COPY $dir/vectors/$Project.$R.5B1g-1S.JobIph $WorkDir/JOBIPH11

>>> COPY $dir/vectors/$Project.$R.1B1u-3S.JobIph $WorkDir/JOBIPH12

>>> COPY $dir/vectors/$Project.$R.3B1u-6S.JobIph $WorkDir/JOBIPH13

>>> COPY $dir/vectors/$Project.$R.1B2g-5S.JobIph $WorkDir/JOBIPH14

>>> COPY $dir/vectors/$Project.$R.3B2g-6S.JobIph $WorkDir/JOBIPH15

>>> COPY $dir/vectors/$Project.$R.5B2g-1S.JobIph $WorkDir/JOBIPH16

>>> COPY $dir/vectors/$Project.$R.1B3g-5S.JobIph $WorkDir/JOBIPH17

>>> COPY $dir/vectors/$Project.$R.3B3g-6S.JobIph $WorkDir/JOBIPH18

>>> COPY $dir/vectors/$Project.$R.5B3g-1S.JobIph $WorkDir/JOBIPH19

>>> COPY $dir/vectors/$Project.$R.1Au-5S.JobIph $WorkDir/JOBIPH20

>>> COPY $dir/vectors/$Project.$R.3Au-6S.JobIph $WorkDir/JOBIPH21

>>> COPY $dir/vectors/$Project.$R.5Au-1S.JobIph $WorkDir/JOBIPH22

&RASSI

OMEGa
NROF=23 12 3 3 5 6 1 5 6 1 5 6 1 3 6 5 6 1 5 6 1 5 6 1
1 2 3 4 5 6 7 8 9 10 11 12
1 2 3
1 2 3
1 2 3 4 5
1 2 3 4 5 6
1
1 2 3 4 5
1 2 3 4 5 6
1
1 2 3 4 5
1 2 3 4 5 6
1
1 2 3
1 2 3 4 5 6
1 2 3 4 5
1 2 3 4 5 6
1
1 2 3 4 5
1 2 3 4 5 6
1
1 2 3 4 5
1 2 3 4 5 6
1
EJOB

-- ----------------------------------

>>> COPY /home/tecumseh/project/molecule/O2/OpenMolcas/vectors/O2.0.60376.1Ag-12S.JobIph /scratch/tecumseh/WorkSpace/O2.0.60376/JOBIPH

>>> COPY /home/tecumseh/project/molecule/O2/OpenMolcas/vectors/O2.0.60376.3Ag-3S.JobIph /scratch/tecumseh/WorkSpace/O2.0.60376/JOBIPH01

>>> COPY /home/tecumseh/project/molecule/O2/OpenMolcas/vectors/O2.0.60376.5Ag-3S.JobIph /scratch/tecumseh/WorkSpace/O2.0.60376/JOBIPH02

>>> COPY /home/tecumseh/project/molecule/O2/OpenMolcas/vectors/O2.0.60376.1B3u-5S.JobIph /scratch/tecumseh/WorkSpace/O2.0.60376/JOBIPH03

>>> COPY /home/tecumseh/project/molecule/O2/OpenMolcas/vectors/O2.0.60376.3B3u-6S.JobIph /scratch/tecumseh/WorkSpace/O2.0.60376/JOBIPH04

>>> COPY /home/tecumseh/project/molecule/O2/OpenMolcas/vectors/O2.0.60376.5B3u-1S.JobIph /scratch/tecumseh/WorkSpace/O2.0.60376/JOBIPH05

>>> COPY /home/tecumseh/project/molecule/O2/OpenMolcas/vectors/O2.0.60376.1B2u-5S.JobIph /scratch/tecumseh/WorkSpace/O2.0.60376/JOBIPH06

>>> COPY /home/tecumseh/project/molecule/O2/OpenMolcas/vectors/O2.0.60376.3B2u-6S.JobIph /scratch/tecumseh/WorkSpace/O2.0.60376/JOBIPH07

>>> COPY /home/tecumseh/project/molecule/O2/OpenMolcas/vectors/O2.0.60376.5B2u-1S.JobIph /scratch/tecumseh/WorkSpace/O2.0.60376/JOBIPH08

>>> COPY /home/tecumseh/project/molecule/O2/OpenMolcas/vectors/O2.0.60376.1B1g-5S.JobIph /scratch/tecumseh/WorkSpace/O2.0.60376/JOBIPH09

>>> COPY /home/tecumseh/project/molecule/O2/OpenMolcas/vectors/O2.0.60376.3B1g-6S.JobIph /scratch/tecumseh/WorkSpace/O2.0.60376/JOBIPH10

>>> COPY /home/tecumseh/project/molecule/O2/OpenMolcas/vectors/O2.0.60376.5B1g-1S.JobIph /scratch/tecumseh/WorkSpace/O2.0.60376/JOBIPH11

>>> COPY /home/tecumseh/project/molecule/O2/OpenMolcas/vectors/O2.0.60376.1B1u-3S.JobIph /scratch/tecumseh/WorkSpace/O2.0.60376/JOBIPH12

>>> COPY /home/tecumseh/project/molecule/O2/OpenMolcas/vectors/O2.0.60376.3B1u-6S.JobIph /scratch/tecumseh/WorkSpace/O2.0.60376/JOBIPH13

>>> COPY /home/tecumseh/project/molecule/O2/OpenMolcas/vectors/O2.0.60376.1B2g-5S.JobIph /scratch/tecumseh/WorkSpace/O2.0.60376/JOBIPH14

>>> COPY /home/tecumseh/project/molecule/O2/OpenMolcas/vectors/O2.0.60376.3B2g-6S.JobIph /scratch/tecumseh/WorkSpace/O2.0.60376/JOBIPH15

>>> COPY /home/tecumseh/project/molecule/O2/OpenMolcas/vectors/O2.0.60376.5B2g-1S.JobIph /scratch/tecumseh/WorkSpace/O2.0.60376/JOBIPH16

>>> COPY /home/tecumseh/project/molecule/O2/OpenMolcas/vectors/O2.0.60376.1B3g-5S.JobIph /scratch/tecumseh/WorkSpace/O2.0.60376/JOBIPH17

>>> COPY /home/tecumseh/project/molecule/O2/OpenMolcas/vectors/O2.0.60376.3B3g-6S.JobIph /scratch/tecumseh/WorkSpace/O2.0.60376/JOBIPH18

>>> COPY /home/tecumseh/project/molecule/O2/OpenMolcas/vectors/O2.0.60376.5B3g-1S.JobIph /scratch/tecumseh/WorkSpace/O2.0.60376/JOBIPH19

>>> COPY /home/tecumseh/project/molecule/O2/OpenMolcas/vectors/O2.0.60376.1Au-5S.JobIph /scratch/tecumseh/WorkSpace/O2.0.60376/JOBIPH20

>>> COPY /home/tecumseh/project/molecule/O2/OpenMolcas/vectors/O2.0.60376.3Au-6S.JobIph /scratch/tecumseh/WorkSpace/O2.0.60376/JOBIPH21

>>> COPY /home/tecumseh/project/molecule/O2/OpenMolcas/vectors/O2.0.60376.5Au-1S.JobIph /scratch/tecumseh/WorkSpace/O2.0.60376/JOBIPH22

--- Start Module: rassi at Thu Apr 17 10:48:25 2025 ---

()()()()()()()()()()()()()()()()()()()()()()()()()()()()()()()()()()()()()()()()()()()()()()()()()()

                                               &RASSI

                                   only a single process is used
                       available to each process: 2.0 GB of memory, 1 thread?
                                            pid: 297560
()()()()()()()()()()()()()()()()()()()()()()()()()()()()()()()()()()()()()()()()()()()()()()()()()()


      ********************************************************************************
      *                                                                              *
      *                             General data section                             *
      *                                                                              *
      ********************************************************************************

   Specific data for JOBIPH file JOBIPH
   -------------------------------------

   Header from SEWARD:
                            O2, D2h symmetry, aug-cc-pVTZ                      
        Integrals generated by Gateway/Seward, Wed Apr 16 15:35:55 2025        

   CASSCF title (first line only):
       O2, 1Ag 12S                                                             

  STATE IRREP:                1
  SPIN MULTIPLICITY:          1
  ACTIVE ELECTRONS:          12
  MAX RAS1 HOLES:             0
  MAX RAS3 ELECTRONS:         0
  NR OF CONFIG:              60

   Specific data for JOBIPH file JOBIPH01
   -------------------------------------

   Header from SEWARD:
                            O2, D2h symmetry, aug-cc-pVTZ                      
        Integrals generated by Gateway/Seward, Wed Apr 16 15:35:55 2025        

   CASSCF title (first line only):
       O2, 3Ag  3S                                                             

  STATE IRREP:                1
  SPIN MULTIPLICITY:          3
  ACTIVE ELECTRONS:          12
  MAX RAS1 HOLES:             0
  MAX RAS3 ELECTRONS:         0
  NR OF CONFIG:              42

   Specific data for JOBIPH file JOBIPH02
   -------------------------------------

   Header from SEWARD:
                            O2, D2h symmetry, aug-cc-pVTZ                      
        Integrals generated by Gateway/Seward, Wed Apr 16 15:35:55 2025        

   CASSCF title (first line only):
       O2, 5Ag  3S                                                             

  STATE IRREP:                1
  SPIN MULTIPLICITY:          5
  ACTIVE ELECTRONS:          12
  MAX RAS1 HOLES:             0
  MAX RAS3 ELECTRONS:         0
  NR OF CONFIG:              10

   Specific data for JOBIPH file JOBIPH03
   -------------------------------------

   Header from SEWARD:
                            O2, D2h symmetry, aug-cc-pVTZ                      
        Integrals generated by Gateway/Seward, Thu Apr 17 10:48:16 2025        

   CASSCF title (first line only):
       O2, 1B3u 5S                                                             

  STATE IRREP:                2
  SPIN MULTIPLICITY:          1
  ACTIVE ELECTRONS:          12
  MAX RAS1 HOLES:             0
  MAX RAS3 ELECTRONS:         0
  NR OF CONFIG:              40

   Specific data for JOBIPH file JOBIPH04
   -------------------------------------

   Header from SEWARD:
                            O2, D2h symmetry, aug-cc-pVTZ                      
        Integrals generated by Gateway/Seward, Wed Apr 16 15:35:55 2025        

   CASSCF title (first line only):
       O2, 3B3u 6S                                                             

  STATE IRREP:                2
  SPIN MULTIPLICITY:          3
  ACTIVE ELECTRONS:          12
  MAX RAS1 HOLES:             0
  MAX RAS3 ELECTRONS:         0
  NR OF CONFIG:              48

   Specific data for JOBIPH file JOBIPH05
   -------------------------------------

   Header from SEWARD:
                            O2, D2h symmetry, aug-cc-pVTZ                      
        Integrals generated by Gateway/Seward, Wed Apr 16 15:35:55 2025        

   CASSCF title (first line only):
       O2, 5B3u 1S                                                             

  STATE IRREP:                2
  SPIN MULTIPLICITY:          5
  ACTIVE ELECTRONS:          12
  MAX RAS1 HOLES:             0
  MAX RAS3 ELECTRONS:         0
  NR OF CONFIG:               8

   Specific data for JOBIPH file JOBIPH06
   -------------------------------------

   Header from SEWARD:
                            O2, D2h symmetry, aug-cc-pVTZ                      
        Integrals generated by Gateway/Seward, Thu Apr 17 10:48:16 2025        

   CASSCF title (first line only):
       O2, 1B2u 5S                                                             

  STATE IRREP:                3
  SPIN MULTIPLICITY:          1
  ACTIVE ELECTRONS:          12
  MAX RAS1 HOLES:             0
  MAX RAS3 ELECTRONS:         0
  NR OF CONFIG:              40

   Specific data for JOBIPH file JOBIPH07
   -------------------------------------

   Header from SEWARD:
                            O2, D2h symmetry, aug-cc-pVTZ                      
        Integrals generated by Gateway/Seward, Wed Apr 16 15:35:55 2025        

   CASSCF title (first line only):
       O2, 3B2u 6S                                                             

  STATE IRREP:                3
  SPIN MULTIPLICITY:          3
  ACTIVE ELECTRONS:          12
  MAX RAS1 HOLES:             0
  MAX RAS3 ELECTRONS:         0
  NR OF CONFIG:              48

   Specific data for JOBIPH file JOBIPH08
   -------------------------------------

   Header from SEWARD:
                            O2, D2h symmetry, aug-cc-pVTZ                      
        Integrals generated by Gateway/Seward, Wed Apr 16 15:35:55 2025        

   CASSCF title (first line only):
       O2, 5B2u 1S                                                             

  STATE IRREP:                3
  SPIN MULTIPLICITY:          5
  ACTIVE ELECTRONS:          12
  MAX RAS1 HOLES:             0
  MAX RAS3 ELECTRONS:         0
  NR OF CONFIG:               8

   Specific data for JOBIPH file JOBIPH09
   -------------------------------------

   Header from SEWARD:
                            O2, D2h symmetry, aug-cc-pVTZ                      
        Integrals generated by Gateway/Seward, Wed Apr 16 15:35:55 2025        

   CASSCF title (first line only):
       O2, 1B1g 5S                                                             

  STATE IRREP:                4
  SPIN MULTIPLICITY:          1
  ACTIVE ELECTRONS:          12
  MAX RAS1 HOLES:             0
  MAX RAS3 ELECTRONS:         0
  NR OF CONFIG:              36

   Specific data for JOBIPH file JOBIPH10
   -------------------------------------

   Header from SEWARD:
                            O2, D2h symmetry, aug-cc-pVTZ                      
        Integrals generated by Gateway/Seward, Wed Apr 16 15:35:55 2025        

   CASSCF title (first line only):
       O2, 3B1g 6S                                                             

  STATE IRREP:                4
  SPIN MULTIPLICITY:          3
  ACTIVE ELECTRONS:          12
  MAX RAS1 HOLES:             0
  MAX RAS3 ELECTRONS:         0
  NR OF CONFIG:              48

   Specific data for JOBIPH file JOBIPH11
   -------------------------------------

   Header from SEWARD:
                            O2, D2h symmetry, aug-cc-pVTZ                      
        Integrals generated by Gateway/Seward, Wed Apr 16 15:35:55 2025        

   CASSCF title (first line only):
       O2, 5B1g 1S                                                             

  STATE IRREP:                4
  SPIN MULTIPLICITY:          5
  ACTIVE ELECTRONS:          12
  MAX RAS1 HOLES:             0
  MAX RAS3 ELECTRONS:         0
  NR OF CONFIG:              12

   Specific data for JOBIPH file JOBIPH12
   -------------------------------------

   Header from SEWARD:
                            O2, D2h symmetry, aug-cc-pVTZ                      
        Integrals generated by Gateway/Seward, Thu Apr 17 10:48:16 2025        

   CASSCF title (first line only):
       O2, 1B1u 3S                                                             

  STATE IRREP:                5
  SPIN MULTIPLICITY:          1
  ACTIVE ELECTRONS:          12
  MAX RAS1 HOLES:             0
  MAX RAS3 ELECTRONS:         0
  NR OF CONFIG:              44

   Specific data for JOBIPH file JOBIPH13
   -------------------------------------

   Header from SEWARD:
                            O2, D2h symmetry, aug-cc-pVTZ                      
        Integrals generated by Gateway/Seward, Wed Apr 16 15:35:55 2025        

   CASSCF title (first line only):
       O2, 3B1u 6S                                                             

  STATE IRREP:                5
  SPIN MULTIPLICITY:          3
  ACTIVE ELECTRONS:          12
  MAX RAS1 HOLES:             0
  MAX RAS3 ELECTRONS:         0
  NR OF CONFIG:              48

   Specific data for JOBIPH file JOBIPH14
   -------------------------------------

   Header from SEWARD:
                            O2, D2h symmetry, aug-cc-pVTZ                      
        Integrals generated by Gateway/Seward, Wed Apr 16 15:35:55 2025        

   CASSCF title (first line only):
       O2, 1B2g 5S                                                             

  STATE IRREP:                6
  SPIN MULTIPLICITY:          1
  ACTIVE ELECTRONS:          12
  MAX RAS1 HOLES:             0
  MAX RAS3 ELECTRONS:         0
  NR OF CONFIG:              40

   Specific data for JOBIPH file JOBIPH15
   -------------------------------------

   Header from SEWARD:
                            O2, D2h symmetry, aug-cc-pVTZ                      
        Integrals generated by Gateway/Seward, Wed Apr 16 15:35:55 2025        

   CASSCF title (first line only):
       O2, 3B2g 6S                                                             

  STATE IRREP:                6
  SPIN MULTIPLICITY:          3
  ACTIVE ELECTRONS:          12
  MAX RAS1 HOLES:             0
  MAX RAS3 ELECTRONS:         0
  NR OF CONFIG:              48

   Specific data for JOBIPH file JOBIPH16
   -------------------------------------

   Header from SEWARD:
                            O2, D2h symmetry, aug-cc-pVTZ                      
        Integrals generated by Gateway/Seward, Wed Apr 16 15:35:55 2025        

   CASSCF title (first line only):
       O2, 5B2g 1S                                                             

  STATE IRREP:                6
  SPIN MULTIPLICITY:          5
  ACTIVE ELECTRONS:          12
  MAX RAS1 HOLES:             0
  MAX RAS3 ELECTRONS:         0
  NR OF CONFIG:               8

   Specific data for JOBIPH file JOBIPH17
   -------------------------------------

   Header from SEWARD:
                            O2, D2h symmetry, aug-cc-pVTZ                      
        Integrals generated by Gateway/Seward, Wed Apr 16 15:35:55 2025        

   CASSCF title (first line only):
       O2, 1B3g 5S                                                             

  STATE IRREP:                7
  SPIN MULTIPLICITY:          1
  ACTIVE ELECTRONS:          12
  MAX RAS1 HOLES:             0
  MAX RAS3 ELECTRONS:         0
  NR OF CONFIG:              40

   Specific data for JOBIPH file JOBIPH18
   -------------------------------------

   Header from SEWARD:
                            O2, D2h symmetry, aug-cc-pVTZ                      
        Integrals generated by Gateway/Seward, Wed Apr 16 15:35:55 2025        

   CASSCF title (first line only):
       O2, 3B3g 6S                                                             

  STATE IRREP:                7
  SPIN MULTIPLICITY:          3
  ACTIVE ELECTRONS:          12
  MAX RAS1 HOLES:             0
  MAX RAS3 ELECTRONS:         0
  NR OF CONFIG:              48

   Specific data for JOBIPH file JOBIPH19
   -------------------------------------

   Header from SEWARD:
                            O2, D2h symmetry, aug-cc-pVTZ                      
        Integrals generated by Gateway/Seward, Wed Apr 16 15:35:55 2025        

   CASSCF title (first line only):
       O2, 5B3g 1S                                                             

  STATE IRREP:                7
  SPIN MULTIPLICITY:          5
  ACTIVE ELECTRONS:          12
  MAX RAS1 HOLES:             0
  MAX RAS3 ELECTRONS:         0
  NR OF CONFIG:               8

   Specific data for JOBIPH file JOBIPH20
   -------------------------------------

   Header from SEWARD:
                            O2, D2h symmetry, aug-cc-pVTZ                      
        Integrals generated by Gateway/Seward, Thu Apr 17 10:48:16 2025        

   CASSCF title (first line only):
       O2, 1Au 5S                                                              

  STATE IRREP:                8
  SPIN MULTIPLICITY:          1
  ACTIVE ELECTRONS:          12
  MAX RAS1 HOLES:             0
  MAX RAS3 ELECTRONS:         0
  NR OF CONFIG:              36

   Specific data for JOBIPH file JOBIPH21
   -------------------------------------

   Header from SEWARD:
                            O2, D2h symmetry, aug-cc-pVTZ                      
        Integrals generated by Gateway/Seward, Wed Apr 16 15:35:55 2025        

   CASSCF title (first line only):
       O2, 3Au 6S                                                              

  STATE IRREP:                8
  SPIN MULTIPLICITY:          3
  ACTIVE ELECTRONS:          12
  MAX RAS1 HOLES:             0
  MAX RAS3 ELECTRONS:         0
  NR OF CONFIG:              48

   Specific data for JOBIPH file JOBIPH22
   -------------------------------------

   Header from SEWARD:
                            O2, D2h symmetry, aug-cc-pVTZ                      
        Integrals generated by Gateway/Seward, Wed Apr 16 15:35:55 2025        

   CASSCF title (first line only):
       O2, 5Au 1S                                                              

  STATE IRREP:                8
  SPIN MULTIPLICITY:          5
  ACTIVE ELECTRONS:          12
  MAX RAS1 HOLES:             0
  MAX RAS3 ELECTRONS:         0
  NR OF CONFIG:              12
 ###############################################################################
 ###############################################################################
 ###                                                                         ###
 ###                                                                         ###
 ###    WARNING: EJOB used when HEFF is available, possible                  ###
 ###    extra interaction between states is ignored!                         ###
 ###                                                                         ###
 ###                                                                         ###
 ###############################################################################
 ###############################################################################

   The following data are common to all the states:
   ------------------------------------------------
   (note: frozen counts as inactive, deleted as secondary)

      Nr of irreps: 8

                 Total     No./Irrep 
      Irrep                  1   2   3   4   5   6   7   8
                            ag b3u b2u b1g b1u b2g b3g  au

      INACTIVE       2       1   0   0   0   1   0   0   0
      ACTIVE         8       2   1   1   0   2   1   1   0
      SECONDARY     82      16  10  10   5  16  10  10   5
      BASIS         92      19  11  11   5  19  11  11   5

      RAS1           0       0   0   0   0   0   0   0   0
      RAS2           8       2   1   1   0   2   1   1   0
      RAS3           0       0   0   0   0   0   0   0   0

        MATRIX ELEMENTS WILL BE COMPUTED FOR THE FOLLOWING ONE-ELECTRON OPERATORS, UNLESS ZERO BY SYMMETRY.
   (Herm=Hermitian, Anti=Antihermitian, Sing=Singlet operator, Trip=Triplet operator)
     MLTPL  0   1 (HERMSING)     MLTPL  1   1 (HERMSING)     MLTPL  1   2 (HERMSING)
     MLTPL  1   3 (HERMSING)     MLTPL  2   1 (HERMSING)     MLTPL  2   2 (HERMSING)
     MLTPL  2   3 (HERMSING)     MLTPL  2   4 (HERMSING)     MLTPL  2   5 (HERMSING)
     MLTPL  2   6 (HERMSING)     VELOCITY   1 (ANTISING)     VELOCITY   2 (ANTISING)
     VELOCITY   3 (ANTISING)     ANGMOM     1 (ANTISING)     ANGMOM     2 (ANTISING)
     ANGMOM     3 (ANTISING)     MLTPV  2   1 (ANTISING)     MLTPV  2   2 (ANTISING)
     MLTPV  2   3 (ANTISING)     MLTPV  2   4 (ANTISING)     MLTPV  2   5 (ANTISING)
     MLTPV  2   6 (ANTISING)

       EIGENSTATES OF A SPIN-FREE HAMILTONIAN WILL BE COMPUTED BASED ON:

  a Hamiltonian matrix assumed to be diagonal with energies read from the wavefunction file(s).

  Nr of states:                   99

   State:        1   2   3   4   5   6   7   8   9  10  11  12  13  14  15  16  17  18  19  20
  JobIph:        1   1   1   1   1   1   1   1   1   1   1   1   2   2   2   3   3   3   4   4
 Root nr:        1   2   3   4   5   6   7   8   9  10  11  12   1   2   3   1   2   3   1   2

   State:       21  22  23  24  25  26  27  28  29  30  31  32  33  34  35  36  37  38  39  40
  JobIph:        4   4   4   5   5   5   5   5   5   6   7   7   7   7   7   8   8   8   8   8
 Root nr:        3   4   5   1   2   3   4   5   6   1   1   2   3   4   5   1   2   3   4   5

   State:       41  42  43  44  45  46  47  48  49  50  51  52  53  54  55  56  57  58  59  60
  JobIph:        8   9  10  10  10  10  10  11  11  11  11  11  11  12  13  13  13  14  14  14
 Root nr:        6   1   1   2   3   4   5   1   2   3   4   5   6   1   1   2   3   1   2   3

   State:       61  62  63  64  65  66  67  68  69  70  71  72  73  74  75  76  77  78  79  80
  JobIph:       14  14  14  15  15  15  15  15  16  16  16  16  16  16  17  18  18  18  18  18
 Root nr:        4   5   6   1   2   3   4   5   1   2   3   4   5   6   1   1   2   3   4   5

   State:       81  82  83  84  85  86  87  88  89  90  91  92  93  94  95  96  97  98  99
  JobIph:       19  19  19  19  19  19  20  21  21  21  21  21  22  22  22  22  22  22  23
 Root nr:        1   2   3   4   5   6   1   1   2   3   4   5   1   2   3   4   5   6   1

  HAMILTONIAN MATRIX FOR THE ORIGINAL STATES:

  Diagonal, with energies
   -149.72328122   -149.70324732   -149.08792466   -149.08403279   -149.04404149
   -148.72010128   -148.71853038   -148.66391888   -148.53050413   -148.50189905
   -148.36601804   -148.27448747   -148.77601142   -148.77051759   -148.66364226
   -148.88293530   -148.87844827   -148.37028404   -149.21274010   -149.15150653
   -148.90442506   -148.70504898   -148.64652962   -149.28013535   -149.18440248
   -149.07463769   -148.77344687   -148.73499543   -148.72385377   -148.84004178
   -149.21274010   -149.15150653   -148.90442506   -148.70504898   -148.64652962
   -149.28013535   -149.18440248   -149.07463769   -148.77344687   -148.73499543
   -148.72385377   -148.84004178   -149.72328122   -149.08792466   -148.72010128
   -148.60154584   -148.53050413   -149.75917857   -149.14816882   -148.83641208
   -148.77601142   -148.66364226   -148.65616138   -148.88293530   -149.29196994
   -149.24193705   -148.66988289   -149.53118360   -149.52647670   -148.99666136
   -148.98305046   -148.82280906   -148.51516912   -149.38869295   -149.01293337
   -148.94932220   -148.91962029   -148.77910122   -149.43832248   -149.06661688
   -149.02114489   -149.01059435   -148.99084342   -148.79419886   -149.14166719
   -149.38869295   -149.01293337   -148.94932220   -148.91962029   -148.77910122
   -149.43832248   -149.06661688   -149.02114489   -149.01059435   -148.99084342
   -148.79419886   -149.14166719   -149.53967035   -149.29196994   -148.90963400
   -148.66988289   -148.40698984   -149.53118360   -149.37995684   -148.99666136
   -148.96782982   -148.70100790   -148.46019606   -149.08826663

      OVERLAP MATRIX FOR THE ORIGINAL STATES:

  Diagonal, with elements
      1.00000000      1.00000000      1.00000000      1.00000000      1.00000000
      1.00000000      1.00000000      1.00000000      1.00000000      1.00000000
      1.00000000      1.00000000      1.00000000      1.00000000      1.00000000
      1.00000000      1.00000000      1.00000000      1.00000000      1.00000000
      1.00000000      1.00000000      1.00000000      1.00000000      1.00000000
      1.00000000      1.00000000      1.00000000      1.00000000      1.00000000
      1.00000000      1.00000000      1.00000000      1.00000000      1.00000000
      1.00000000      1.00000000      1.00000000      1.00000000      1.00000000
      1.00000000      1.00000000      1.00000000      1.00000000      1.00000000
      1.00000000      1.00000000      1.00000000      1.00000000      1.00000000
      1.00000000      1.00000000      1.00000000      1.00000000      1.00000000
      1.00000000      1.00000000      1.00000000      1.00000000      1.00000000
      1.00000000      1.00000000      1.00000000      1.00000000      1.00000000
      1.00000000      1.00000000      1.00000000      1.00000000      1.00000000
      1.00000000      1.00000000      1.00000000      1.00000000      1.00000000
      1.00000000      1.00000000      1.00000000      1.00000000      1.00000000
      1.00000000      1.00000000      1.00000000      1.00000000      1.00000000
      1.00000000      1.00000000      1.00000000      1.00000000      1.00000000
      1.00000000      1.00000000      1.00000000      1.00000000      1.00000000
      1.00000000      1.00000000      1.00000000      1.00000000

::    RASSI State    1     Total energy:    -149.72328122203336
::    RASSI State    2     Total energy:    -149.70324731510945
::    RASSI State    3     Total energy:    -149.08792466251415
::    RASSI State    4     Total energy:    -149.08403279053309
::    RASSI State    5     Total energy:    -149.04404148966626
::    RASSI State    6     Total energy:    -148.72010128463936
::    RASSI State    7     Total energy:    -148.71853038079334
::    RASSI State    8     Total energy:    -148.66391888427788
::    RASSI State    9     Total energy:    -148.53050412605759
::    RASSI State   10     Total energy:    -148.50189905321716
::    RASSI State   11     Total energy:    -148.36601803840404
::    RASSI State   12     Total energy:    -148.27448746876863
::    RASSI State   13     Total energy:    -148.77601142288393
::    RASSI State   14     Total energy:    -148.77051758890124
::    RASSI State   15     Total energy:    -148.66364226137418
::    RASSI State   16     Total energy:    -148.88293529856202
::    RASSI State   17     Total energy:    -148.87844826833432
::    RASSI State   18     Total energy:    -148.37028404084202
::    RASSI State   19     Total energy:    -149.21274009881833
::    RASSI State   20     Total energy:    -149.15150653315234
::    RASSI State   21     Total energy:    -148.90442506215399
::    RASSI State   22     Total energy:    -148.70504898245420
::    RASSI State   23     Total energy:    -148.64652961685658
::    RASSI State   24     Total energy:    -149.28013535115446
::    RASSI State   25     Total energy:    -149.18440247823585
::    RASSI State   26     Total energy:    -149.07463769485790
::    RASSI State   27     Total energy:    -148.77344687422152
::    RASSI State   28     Total energy:    -148.73499543045676
::    RASSI State   29     Total energy:    -148.72385377267148
::    RASSI State   30     Total energy:    -148.84004177519964
::    RASSI State   31     Total energy:    -149.21274009881847
::    RASSI State   32     Total energy:    -149.15150653315237
::    RASSI State   33     Total energy:    -148.90442506215405
::    RASSI State   34     Total energy:    -148.70504898245414
::    RASSI State   35     Total energy:    -148.64652961685653
::    RASSI State   36     Total energy:    -149.28013535115451
::    RASSI State   37     Total energy:    -149.18440247823580
::    RASSI State   38     Total energy:    -149.07463769485790
::    RASSI State   39     Total energy:    -148.77344687422155
::    RASSI State   40     Total energy:    -148.73499543045693
::    RASSI State   41     Total energy:    -148.72385377267136
::    RASSI State   42     Total energy:    -148.84004177519955
::    RASSI State   43     Total energy:    -149.72328122203348
::    RASSI State   44     Total energy:    -149.08792466251435
::    RASSI State   45     Total energy:    -148.72010128463944
::    RASSI State   46     Total energy:    -148.60154584079214
::    RASSI State   47     Total energy:    -148.53050412605762
::    RASSI State   48     Total energy:    -149.75917857448897
::    RASSI State   49     Total energy:    -149.14816882004902
::    RASSI State   50     Total energy:    -148.83641208200351
::    RASSI State   51     Total energy:    -148.77601142288393
::    RASSI State   52     Total energy:    -148.66364226137415
::    RASSI State   53     Total energy:    -148.65616138390894
::    RASSI State   54     Total energy:    -148.88293529856202
::    RASSI State   55     Total energy:    -149.29196994139332
::    RASSI State   56     Total energy:    -149.24193704645145
::    RASSI State   57     Total energy:    -148.66988288614218
::    RASSI State   58     Total energy:    -149.53118360177399
::    RASSI State   59     Total energy:    -149.52647670264054
::    RASSI State   60     Total energy:    -148.99666136258566
::    RASSI State   61     Total energy:    -148.98305046157751
::    RASSI State   62     Total energy:    -148.82280905882737
::    RASSI State   63     Total energy:    -148.51516911989597
::    RASSI State   64     Total energy:    -149.38869294653225
::    RASSI State   65     Total energy:    -149.01293336550754
::    RASSI State   66     Total energy:    -148.94932220268001
::    RASSI State   67     Total energy:    -148.91962028998839
::    RASSI State   68     Total energy:    -148.77910121679068
::    RASSI State   69     Total energy:    -149.43832247885632
::    RASSI State   70     Total energy:    -149.06661688013349
::    RASSI State   71     Total energy:    -149.02114489268757
::    RASSI State   72     Total energy:    -149.01059434602357
::    RASSI State   73     Total energy:    -148.99084341520381
::    RASSI State   74     Total energy:    -148.79419886199986
::    RASSI State   75     Total energy:    -149.14166719340034
::    RASSI State   76     Total energy:    -149.38869294653233
::    RASSI State   77     Total energy:    -149.01293336550745
::    RASSI State   78     Total energy:    -148.94932220267987
::    RASSI State   79     Total energy:    -148.91962028998850
::    RASSI State   80     Total energy:    -148.77910121679076
::    RASSI State   81     Total energy:    -149.43832247885632
::    RASSI State   82     Total energy:    -149.06661688013349
::    RASSI State   83     Total energy:    -149.02114489268760
::    RASSI State   84     Total energy:    -149.01059434602348
::    RASSI State   85     Total energy:    -148.99084341520378
::    RASSI State   86     Total energy:    -148.79419886199986
::    RASSI State   87     Total energy:    -149.14166719340028
::    RASSI State   88     Total energy:    -149.53967034768979
::    RASSI State   89     Total energy:    -149.29196994139335
::    RASSI State   90     Total energy:    -148.90963400284522
::    RASSI State   91     Total energy:    -148.66988288614220
::    RASSI State   92     Total energy:    -148.40698984134528
::    RASSI State   93     Total energy:    -149.53118360177402
::    RASSI State   94     Total energy:    -149.37995684391615
::    RASSI State   95     Total energy:    -148.99666136258566
::    RASSI State   96     Total energy:    -148.96782981645549
::    RASSI State   97     Total energy:    -148.70100789902204
::    RASSI State   98     Total energy:    -148.46019605881585
::    RASSI State   99     Total energy:    -149.08826662571295



      ****************************************************************************************************
      *                                                                                                  *
      *                                         Spin-free section                                        *
      *                                                                                                  *
      *                 Note: index according to input order, order according to energy.                 *
      *                                                                                                  *
      ****************************************************************************************************



  SPIN-FREE ENERGIES:
  (Shifted by EMIN (a.u.) =       -149.7591785745)

 SF State       Relative EMIN(au)   Rel lowest level(eV)    D:o, cm**(-1)      L_eff   Abs_M

    48             0.0000000000        0.0000000000              0.0000         1.5     0.0
    43             0.0358973525        0.9768167229           7878.5582         2.3     2.0
     1             0.0358973525        0.9768167229           7878.5582         2.3     2.0
     2             0.0559312594        1.5219671022          12275.4925         1.5     0.0
    88             0.2195082268        5.9731231436          48176.4872         1.2     0.0
    93             0.2279949727        6.2040592647          50039.1126         2.1     2.0
    58             0.2279949727        6.2040592647          50039.1126         2.1     2.0
    59             0.2327018718        6.3321405150          51072.1575         1.1     0.0
    69             0.3208560956        8.7309391476          70419.7733         1.3     1.0
    81             0.3208560956        8.7309391476          70419.7733         1.3     1.0
    76             0.3704856280       10.0814275209          81312.1966         2.5     1.0
    64             0.3704856280       10.0814275209          81312.1966         2.5     1.0
    94             0.3792217306       10.3191489835          83229.5495         1.4     0.0
    89             0.4672086331       12.7133945726         102540.4425         2.2     2.0
    55             0.4672086331       12.7133945726         102540.4425         2.2     2.0
    36             0.4790432233       13.0354301787         105137.8348         1.8     1.0
    24             0.4790432233       13.0354301787         105137.8348         1.8     1.0
    56             0.5172415280       14.0748590019         113521.3937         1.0     0.0
    31             0.5464384757       14.8693484211         119929.3830         1.6     1.0
    19             0.5464384757       14.8693484211         119929.3830         1.6     1.0
    25             0.5747760963       15.6404543601         126148.7718         2.0     1.0
    37             0.5747760963       15.6404543601         126148.7718         2.0     1.0
    32             0.6076720413       16.5355986277         133368.5973         1.3     1.0
    20             0.6076720413       16.5355986277         133368.5973         1.3     1.0
    49             0.6110097544       16.6264224281         134101.1406         0.5     0.0
    75             0.6175113811       16.8033407021         135528.0827         1.4     1.0
    87             0.6175113811       16.8033407021         135528.0827         1.4     1.0
    99             0.6709119488       18.2564441752         147248.1526         0.1     0.0
    44             0.6712539120       18.2657494679         147323.2049         1.8     2.0
     3             0.6712539120       18.2657494679         147323.2049         1.8     2.0
     4             0.6751457840       18.3716526996         148177.3721         1.9     0.0
    38             0.6845408796       18.6273062768         150239.3572         1.1     1.0
    26             0.6845408796       18.6273062768         150239.3572         1.1     1.0
    70             0.6925616944       18.8455637643         151999.7226         1.5     1.0
    82             0.6925616944       18.8455637643         151999.7226         1.5     1.0
     5             0.7151370848       19.4598714339         156954.4481         1.1     0.0
    83             0.7380336818       20.0829195780         161979.6702         2.9     3.0
    71             0.7380336818       20.0829195780         161979.6702         2.9     3.0
    65             0.7462452090       20.3063666158         163781.8921         1.5     1.0
    77             0.7462452090       20.3063666158         163781.8921         1.5     1.0
    72             0.7485842285       20.3700145784         164295.2476         1.3     1.0
    84             0.7485842285       20.3700145784         164295.2476         1.3     1.0
    60             0.7625172119       20.7491503723         167353.1840         1.9     2.0
    95             0.7625172119       20.7491503723         167353.1840         1.9     2.0
    73             0.7683351593       20.9074647857         168630.0758         1.3     1.0
    85             0.7683351593       20.9074647857         168630.0758         1.3     1.0
    61             0.7761281129       21.1195218568         170340.4315         0.9     0.0
    96             0.7913487580       21.5336967101         173680.9769         1.3     0.0
    66             0.8098563718       22.0373145371         177742.9287         3.1     3.0
    78             0.8098563718       22.0373145371         177742.9287         3.1     3.0
    79             0.8395582845       22.8455447556         184261.7450         2.0     1.0
    67             0.8395582845       22.8455447556         184261.7450         2.0     1.0
    90             0.8495445716       23.1172854722         186453.4817         1.7     0.0
    33             0.8547535123       23.2590279693         187596.7120         1.4     1.0
    21             0.8547535123       23.2590279693         187596.7120         1.4     1.0
    54             0.8762432759       23.8437942267         192313.1700         1.9     2.0
    16             0.8762432759       23.8437942267         192313.1700         1.9     2.0
    17             0.8807303062       23.9658925393         193297.9593         0.8     0.0
    30             0.9191367993       25.0109864584         201727.2102         0.6     1.0
    42             0.9191367993       25.0109864584         201727.2102         0.6     1.0
    50             0.9227664925       25.1097554419         202523.8358         1.0     0.0
    62             0.9363695157       25.4799125596         205509.3543         1.5     0.0
    74             0.9649797125       26.2584356761         211788.5667         0.7     1.0
    86             0.9649797125       26.2584356761         211788.5667         0.7     1.0
    80             0.9800773577       26.6692635313         215102.1168         1.3     1.0
    68             0.9800773577       26.6692635313         215102.1168         1.3     1.0
    51             0.9831671516       26.7533411067         215780.2482         2.2     2.0
    13             0.9831671516       26.7533411067         215780.2482         2.2     2.0
    39             0.9857317003       26.8231260309         216343.1015         1.2     1.0
    27             0.9857317003       26.8231260309         216343.1015         1.2     1.0
    14             0.9886609856       26.9028359452         216986.0054         1.3     0.0
    40             1.0241831440       27.8694431189         224782.2180         2.6     3.0
    28             1.0241831440       27.8694431189         224782.2180         2.6     3.0
    29             1.0353248018       28.1726230723         227227.5292         0.9     1.0
    41             1.0353248018       28.1726230723         227227.5292         0.9     1.0
    45             1.0390772898       28.2747334735         228051.1051         2.3     2.0
     6             1.0390772898       28.2747334735         228051.1051         2.3     2.0
     7             1.0406481937       28.3174799448         228395.8787         1.4     0.0
    22             1.0541295920       28.6843274822         231354.7036         1.3     1.0
    34             1.0541295920       28.6843274822         231354.7036         1.3     1.0
    97             1.0581706755       28.7942909643         232241.6189         0.6     0.0
    91             1.0892956883       29.6412457117         239072.7696         1.8     2.0
    57             1.0892956883       29.6412457117         239072.7696         1.8     2.0
     8             1.0952596902       29.8035344700         240381.7168         0.6     0.0
    15             1.0955363131       29.8110617627         240442.4285         2.1     2.0
    52             1.0955363131       29.8110617627         240442.4285         2.1     2.0
    53             1.1030171906       30.0146268088         242084.2913         1.1     0.0
    23             1.1126489576       30.2767205423         244198.2198         2.6     3.0
    35             1.1126489576       30.2767205423         244198.2198         2.6     3.0
    46             1.1576327337       31.5007914476         254071.0175         0.4     0.0
    47             1.2286744484       33.4339349868         269662.8716         2.0     2.0
     9             1.2286744484       33.4339349868         269662.8716         2.0     2.0
    63             1.2440094546       33.8512217626         273028.5165         0.6     0.0
    10             1.2572795213       34.2123186725         275940.9595         1.0     0.0
    98             1.2989825157       35.3471149608         285093.7088         1.2     0.0
    92             1.3521887331       36.7949298950         296771.1237         1.2     0.0
    18             1.3888945336       37.7937456100         304827.1158         0.5     0.0
    11             1.3931605361       37.9098294501         305763.3951         0.9     0.0
    12             1.4846911057       40.4005031337         325852.0331         0.5     0.0

++ Dipole transition strengths (spin-free states):
   -----------------------------------------------
     for osc. strength at least  1.00000000E-05

      From   To        Osc. strength     Einstein coefficients Ax, Ay, Az (sec-1)    Total A (sec-1)
     -----------------------------------------------------------------------------------------------
        48   94       1.43307545E-01  0.00000000E+00  0.00000000E+00  6.62165227E+08  6.62165227E+08
        48   36       2.14835972E-04  1.58404416E+06  0.00000000E+00  0.00000000E+00  1.58404416E+06
        48   24       2.14835972E-04  0.00000000E+00  1.58404416E+06  0.00000000E+00  1.58404416E+06
        48   25       6.88753124E-02  0.00000000E+00  7.31091714E+08  0.00000000E+00  7.31091714E+08
        48   37       6.88753124E-02  7.31091714E+08  0.00000000E+00  0.00000000E+00  7.31091714E+08
        48   38       9.78868360E-02  1.47378439E+09  0.00000000E+00  0.00000000E+00  1.47378439E+09
        48   26       9.78868360E-02  0.00000000E+00  1.47378439E+09  0.00000000E+00  1.47378439E+09
        48   96       5.12055542E-03  0.00000000E+00  0.00000000E+00  1.03030025E+08  1.03030025E+08
        48   39       2.82326540E-04  8.81414185E+06  0.00000000E+00  0.00000000E+00  8.81414185E+06
        48   27       2.82326540E-04  0.00000000E+00  8.81414185E+06  0.00000000E+00  8.81414185E+06
        48   29       8.62056588E-04  0.00000000E+00  2.96892956E+07  0.00000000E+00  2.96892956E+07
        48   41       8.62056588E-04  2.96892956E+07  0.00000000E+00  0.00000000E+00  2.96892956E+07
        48   97       1.16780288E+00  0.00000000E+00  0.00000000E+00  4.20137908E+10  4.20137908E+10
        48   98       4.95659104E-02  0.00000000E+00  0.00000000E+00  2.68720366E+09  2.68720366E+09
        43   89       1.28393466E-01  0.00000000E+00  0.00000000E+00  7.67424111E+08  7.67424111E+08
        43   31       3.90926011E-04  3.27391131E+06  0.00000000E+00  0.00000000E+00  3.27391131E+06
        43   19       3.90926011E-04  0.00000000E+00  3.27391131E+06  0.00000000E+00  3.27391131E+06
        43   32       6.01178389E-02  6.31486536E+08  0.00000000E+00  0.00000000E+00  6.31486536E+08
        43   20       6.01178389E-02  0.00000000E+00  6.31486536E+08  0.00000000E+00  6.31486536E+08
        43   33       1.32877410E-01  2.86270950E+09  0.00000000E+00  0.00000000E+00  2.86270950E+09
        43   21       1.32877410E-01  0.00000000E+00  2.86270950E+09  0.00000000E+00  2.86270950E+09
        43   22       2.73154926E-04  0.00000000E+00  9.09941781E+06  0.00000000E+00  9.09941781E+06
        43   34       2.73154926E-04  9.09941781E+06  0.00000000E+00  0.00000000E+00  9.09941781E+06
        43   91       1.16051199E+00  0.00000000E+00  0.00000000E+00  4.13757397E+10  4.13757397E+10
        43   23       2.26449819E-04  0.00000000E+00  8.43555995E+06  0.00000000E+00  8.43555995E+06
        43   35       2.26449819E-04  8.43555995E+06  0.00000000E+00  0.00000000E+00  8.43555995E+06
         1   55       1.28393466E-01  0.00000000E+00  0.00000000E+00  7.67424111E+08  7.67424111E+08
         1   31       3.90926011E-04  0.00000000E+00  3.27391131E+06  0.00000000E+00  3.27391131E+06
         1   19       3.90926011E-04  3.27391131E+06  0.00000000E+00  0.00000000E+00  3.27391131E+06
         1   32       6.01178389E-02  0.00000000E+00  6.31486536E+08  0.00000000E+00  6.31486536E+08
         1   20       6.01178389E-02  6.31486536E+08  0.00000000E+00  0.00000000E+00  6.31486536E+08
         1   33       1.32877410E-01  0.00000000E+00  2.86270950E+09  0.00000000E+00  2.86270950E+09
         1   21       1.32877410E-01  2.86270950E+09  0.00000000E+00  0.00000000E+00  2.86270950E+09
         1   22       2.73154926E-04  9.09941781E+06  0.00000000E+00  0.00000000E+00  9.09941781E+06
         1   34       2.73154926E-04  0.00000000E+00  9.09941781E+06  0.00000000E+00  9.09941781E+06
         1   57       1.16051199E+00  0.00000000E+00  0.00000000E+00  4.13757397E+10  4.13757397E+10
         1   23       2.26449819E-04  8.43555995E+06  0.00000000E+00  0.00000000E+00  8.43555995E+06
         1   35       2.26449819E-04  0.00000000E+00  8.43555995E+06  0.00000000E+00  8.43555995E+06
         2   56       1.24123683E-01  0.00000000E+00  0.00000000E+00  8.48695270E+08  8.48695270E+08
         2   31       2.17936372E-02  0.00000000E+00  1.68473424E+08  0.00000000E+00  1.68473424E+08
         2   19       2.17936372E-02  1.68473424E+08  0.00000000E+00  0.00000000E+00  1.68473424E+08
         2   32       3.87614256E-02  0.00000000E+00  3.79123580E+08  0.00000000E+00  3.79123580E+08
         2   20       3.87614256E-02  3.79123580E+08  0.00000000E+00  0.00000000E+00  3.79123580E+08
         2   33       8.92591879E-02  0.00000000E+00  1.83005492E+09  0.00000000E+00  1.83005492E+09
         2   21       8.92591879E-02  1.83005492E+09  0.00000000E+00  0.00000000E+00  1.83005492E+09
         2   22       1.06225472E-03  3.40073846E+07  0.00000000E+00  0.00000000E+00  3.40073846E+07
         2   34       1.06225472E-03  0.00000000E+00  3.40073846E+07  0.00000000E+00  3.40073846E+07
        88   76       5.72647844E-03  4.19394184E+06  0.00000000E+00  0.00000000E+00  4.19394184E+06
        88   64       5.72647844E-03  0.00000000E+00  4.19394184E+06  0.00000000E+00  4.19394184E+06
        88   65       3.75426744E-03  0.00000000E+00  3.34675340E+07  0.00000000E+00  3.34675340E+07
        88   77       3.75426744E-03  3.34675340E+07  0.00000000E+00  0.00000000E+00  3.34675340E+07
        88   79       8.78580024E-03  1.08528978E+08  0.00000000E+00  0.00000000E+00  1.08528978E+08
        88   67       8.78580024E-03  0.00000000E+00  1.08528978E+08  0.00000000E+00  1.08528978E+08
        88   80       1.31627177E-01  2.44643589E+09  0.00000000E+00  0.00000000E+00  2.44643589E+09
        88   68       1.31627177E-01  0.00000000E+00  2.44643589E+09  0.00000000E+00  2.44643589E+09
        88   46       1.08954987E-01  0.00000000E+00  0.00000000E+00  3.08090962E+09  3.08090962E+09
        93   69       2.77489992E-03  0.00000000E+00  7.68822474E+05  0.00000000E+00  7.68822474E+05
        93   81       2.77489992E-03  7.68822474E+05  0.00000000E+00  0.00000000E+00  7.68822474E+05
        93   70       3.09487541E-04  0.00000000E+00  2.14610145E+06  0.00000000E+00  2.14610145E+06
        93   82       3.09487541E-04  2.14610145E+06  0.00000000E+00  0.00000000E+00  2.14610145E+06
        93   83       2.12922136E-03  1.77966382E+07  0.00000000E+00  0.00000000E+00  1.77966382E+07
        93   71       2.12922136E-03  0.00000000E+00  1.77966382E+07  0.00000000E+00  1.77966382E+07
        93   72       3.64437326E-03  0.00000000E+00  3.17339501E+07  0.00000000E+00  3.17339501E+07
        93   84       3.64437326E-03  3.17339501E+07  0.00000000E+00  0.00000000E+00  3.17339501E+07
        93   73       3.10224936E-03  0.00000000E+00  2.91019522E+07  0.00000000E+00  2.91019522E+07
        93   85       3.10224936E-03  2.91019522E+07  0.00000000E+00  0.00000000E+00  2.91019522E+07
        93   74       7.86097005E-02  0.00000000E+00  1.37184175E+09  0.00000000E+00  1.37184175E+09
        93   86       7.86097005E-02  1.37184175E+09  0.00000000E+00  0.00000000E+00  1.37184175E+09
        93   51       6.68648553E-03  0.00000000E+00  0.00000000E+00  1.22518242E+08  1.22518242E+08
        93   52       1.88150399E-02  0.00000000E+00  0.00000000E+00  4.54984272E+08  4.54984272E+08
        58   69       2.77489992E-03  7.68822474E+05  0.00000000E+00  0.00000000E+00  7.68822474E+05
        58   81       2.77489992E-03  0.00000000E+00  7.68822474E+05  0.00000000E+00  7.68822474E+05
        58   70       3.09487541E-04  2.14610145E+06  0.00000000E+00  0.00000000E+00  2.14610145E+06
        58   82       3.09487541E-04  0.00000000E+00  2.14610145E+06  0.00000000E+00  2.14610145E+06
        58   83       2.12922136E-03  0.00000000E+00  1.77966382E+07  0.00000000E+00  1.77966382E+07
        58   71       2.12922136E-03  1.77966382E+07  0.00000000E+00  0.00000000E+00  1.77966382E+07
        58   72       3.64437326E-03  3.17339501E+07  0.00000000E+00  0.00000000E+00  3.17339501E+07
        58   84       3.64437326E-03  0.00000000E+00  3.17339501E+07  0.00000000E+00  3.17339501E+07
        58   73       3.10224936E-03  2.91019522E+07  0.00000000E+00  0.00000000E+00  2.91019522E+07
        58   85       3.10224936E-03  0.00000000E+00  2.91019522E+07  0.00000000E+00  2.91019522E+07
        58   74       7.86097005E-02  1.37184175E+09  0.00000000E+00  0.00000000E+00  1.37184175E+09
        58   86       7.86097005E-02  0.00000000E+00  1.37184175E+09  0.00000000E+00  1.37184175E+09
        58   13       6.68648553E-03  0.00000000E+00  0.00000000E+00  1.22518242E+08  1.22518242E+08
        58   15       1.88150399E-02  0.00000000E+00  0.00000000E+00  4.54984272E+08  4.54984272E+08
        59   69       2.66812341E-03  6.66197576E+05  0.00000000E+00  0.00000000E+00  6.66197576E+05
        59   81       2.66812341E-03  0.00000000E+00  6.66197576E+05  0.00000000E+00  6.66197576E+05
        59   70       3.18321644E-03  2.16285790E+07  0.00000000E+00  0.00000000E+00  2.16285790E+07
        59   82       3.18321644E-03  0.00000000E+00  2.16285790E+07  0.00000000E+00  2.16285790E+07
        59   72       7.37655754E-03  6.30762648E+07  0.00000000E+00  0.00000000E+00  6.30762648E+07
        59   84       7.37655754E-03  0.00000000E+00  6.30762648E+07  0.00000000E+00  6.30762648E+07
        59   73       1.52978912E-04  1.41018980E+06  0.00000000E+00  0.00000000E+00  1.41018980E+06
        59   85       1.52978912E-04  0.00000000E+00  1.41018980E+06  0.00000000E+00  1.41018980E+06
        59   74       7.49971929E-02  1.29213436E+09  0.00000000E+00  0.00000000E+00  1.29213436E+09
        59   86       7.49971929E-02  0.00000000E+00  1.29213436E+09  0.00000000E+00  1.29213436E+09
        59   14       6.01139125E-03  0.00000000E+00  0.00000000E+00  1.10377993E+08  1.10377993E+08
        69   94       3.42799060E-04  0.00000000E+00  3.75201818E+04  0.00000000E+00  3.75201818E+04
        69   24       1.04838949E-03  0.00000000E+00  0.00000000E+00  8.42899547E+05  8.42899547E+05
        69   25       1.43095883E-04  0.00000000E+00  0.00000000E+00  2.96436613E+05  2.96436613E+05
        69   26       2.85613954E-01  0.00000000E+00  0.00000000E+00  1.21378165E+09  1.21378165E+09
        69   60       2.52219148E-03  1.58076485E+07  0.00000000E+00  0.00000000E+00  1.58076485E+07
        69   95       2.52219148E-03  0.00000000E+00  1.58076485E+07  0.00000000E+00  1.58076485E+07
        69   61       3.37411305E-04  2.24704840E+06  0.00000000E+00  0.00000000E+00  2.24704840E+06
        69   96       8.10535102E-03  0.00000000E+00  5.76485542E+07  0.00000000E+00  5.76485542E+07
        69   62       1.77450211E-01  2.16004330E+09  0.00000000E+00  0.00000000E+00  2.16004330E+09
        69   27       1.01423869E-03  0.00000000E+00  0.00000000E+00  1.44056166E+07  1.44056166E+07
        69   29       1.30077084E-04  0.00000000E+00  0.00000000E+00  2.13342852E+06  2.13342852E+06
        69   97       4.82655131E-03  0.00000000E+00  8.43050235E+07  0.00000000E+00  8.43050235E+07
        69   98       9.06018814E-05  0.00000000E+00  2.78508259E+06  0.00000000E+00  2.78508259E+06
        81   94       3.42799060E-04  3.75201818E+04  0.00000000E+00  0.00000000E+00  3.75201818E+04
        81   36       1.04838949E-03  0.00000000E+00  0.00000000E+00  8.42899547E+05  8.42899547E+05
        81   37       1.43095883E-04  0.00000000E+00  0.00000000E+00  2.96436613E+05  2.96436613E+05
        81   38       2.85613954E-01  0.00000000E+00  0.00000000E+00  1.21378165E+09  1.21378165E+09
        81   60       2.52219148E-03  0.00000000E+00  1.58076485E+07  0.00000000E+00  1.58076485E+07
        81   95       2.52219148E-03  1.58076485E+07  0.00000000E+00  0.00000000E+00  1.58076485E+07
        81   61       3.37411305E-04  0.00000000E+00  2.24704840E+06  0.00000000E+00  2.24704840E+06
        81   96       8.10535102E-03  5.76485542E+07  0.00000000E+00  0.00000000E+00  5.76485542E+07
        81   62       1.77450211E-01  0.00000000E+00  2.16004330E+09  0.00000000E+00  2.16004330E+09
        81   39       1.01423869E-03  0.00000000E+00  0.00000000E+00  1.44056166E+07  1.44056166E+07
        81   41       1.30077084E-04  0.00000000E+00  0.00000000E+00  2.13342852E+06  2.13342852E+06
        81   97       4.82655131E-03  8.43050235E+07  0.00000000E+00  0.00000000E+00  8.43050235E+07
        81   98       9.06018814E-05  2.78508259E+06  0.00000000E+00  0.00000000E+00  2.78508259E+06
        76   89       2.15175181E-04  6.46788998E+04  0.00000000E+00  0.00000000E+00  6.46788998E+04
        76   55       2.15175181E-04  0.00000000E+00  6.46788998E+04  0.00000000E+00  6.46788998E+04
        76   56       5.17272089E-05  0.00000000E+00  3.57948930E+04  0.00000000E+00  3.57948930E+04
        76   31       2.11644999E-04  0.00000000E+00  0.00000000E+00  2.10528790E+05  2.10528790E+05
        76   32       2.95356173E-03  0.00000000E+00  0.00000000E+00  5.33871270E+06  5.33871270E+06
        76   90       1.22561428E-02  9.03738115E+07  0.00000000E+00  0.00000000E+00  9.03738115E+07
        76   33       3.13169911E-01  0.00000000E+00  0.00000000E+00  2.35972964E+09  2.35972964E+09
        76   34       1.79073280E-03  0.00000000E+00  0.00000000E+00  2.68906709E+07  2.68906709E+07
        76   91       3.35217135E-03  5.56500279E+07  0.00000000E+00  0.00000000E+00  5.56500279E+07
        76   57       3.35217135E-03  0.00000000E+00  5.56500279E+07  0.00000000E+00  5.56500279E+07
        76   92       3.34370235E-04  1.03537774E+07  0.00000000E+00  0.00000000E+00  1.03537774E+07
        64   89       2.15175181E-04  0.00000000E+00  6.46788998E+04  0.00000000E+00  6.46788998E+04
        64   55       2.15175181E-04  6.46788998E+04  0.00000000E+00  0.00000000E+00  6.46788998E+04
        64   56       5.17272089E-05  3.57948930E+04  0.00000000E+00  0.00000000E+00  3.57948930E+04
        64   19       2.11644999E-04  0.00000000E+00  0.00000000E+00  2.10528790E+05  2.10528790E+05
        64   20       2.95356173E-03  0.00000000E+00  0.00000000E+00  5.33871270E+06  5.33871270E+06
        64   90       1.22561428E-02  0.00000000E+00  9.03738115E+07  0.00000000E+00  9.03738115E+07
        64   21       3.13169911E-01  0.00000000E+00  0.00000000E+00  2.35972964E+09  2.35972964E+09
        64   22       1.79073280E-03  0.00000000E+00  0.00000000E+00  2.68906709E+07  2.68906709E+07
        64   91       3.35217135E-03  0.00000000E+00  5.56500279E+07  0.00000000E+00  5.56500279E+07
        64   57       3.35217135E-03  5.56500279E+07  0.00000000E+00  0.00000000E+00  5.56500279E+07
        64   92       3.34370235E-04  0.00000000E+00  1.03537774E+07  0.00000000E+00  1.03537774E+07
        94   49       1.79015315E-01  0.00000000E+00  0.00000000E+00  3.09017487E+08  3.09017487E+08
        94   70       1.14062490E-04  0.00000000E+00  3.59820006E+05  0.00000000E+00  3.59820006E+05
        94   82       1.14062490E-04  3.59820006E+05  0.00000000E+00  0.00000000E+00  3.59820006E+05
        94   72       7.38077843E-04  0.00000000E+00  3.23533047E+06  0.00000000E+00  3.23533047E+06
        94   84       7.38077843E-04  3.23533047E+06  0.00000000E+00  0.00000000E+00  3.23533047E+06
        94   50       1.61931002E-04  0.00000000E+00  0.00000000E+00  1.53713325E+06  1.53713325E+06
        94   74       4.53111658E-02  0.00000000E+00  4.99519619E+08  0.00000000E+00  4.99519619E+08
        94   86       4.53111658E-02  4.99519619E+08  0.00000000E+00  0.00000000E+00  4.99519619E+08
        94   53       2.39940319E-03  0.00000000E+00  0.00000000E+00  4.03873934E+07  4.03873934E+07
        89   44       1.72344839E-01  0.00000000E+00  0.00000000E+00  2.30548482E+08  2.30548482E+08
        89   65       5.27499492E-05  0.00000000E+00  1.31963917E+05  0.00000000E+00  1.31963917E+05
        89   77       5.27499492E-05  1.31963917E+05  0.00000000E+00  0.00000000E+00  1.31963917E+05
        89   66       7.80677394E-04  0.00000000E+00  2.94495204E+06  0.00000000E+00  2.94495204E+06
        89   78       7.80677394E-04  2.94495204E+06  0.00000000E+00  0.00000000E+00  2.94495204E+06
        89   79       1.15324578E-05  5.13729682E+04  0.00000000E+00  0.00000000E+00  5.13729682E+04
        89   67       1.15324578E-05  0.00000000E+00  5.13729682E+04  0.00000000E+00  5.13729682E+04
        89   80       1.06419588E-02  8.99383447E+07  0.00000000E+00  0.00000000E+00  8.99383447E+07
        89   68       1.06419588E-02  0.00000000E+00  8.99383447E+07  0.00000000E+00  8.99383447E+07
        89   47       1.14105952E-01  0.00000000E+00  0.00000000E+00  2.12578826E+09  2.12578826E+09
        55    3       1.72344839E-01  0.00000000E+00  0.00000000E+00  2.30548482E+08  2.30548482E+08
        55   65       5.27499492E-05  1.31963917E+05  0.00000000E+00  0.00000000E+00  1.31963917E+05
        55   77       5.27499492E-05  0.00000000E+00  1.31963917E+05  0.00000000E+00  1.31963917E+05
        55   66       7.80677394E-04  2.94495204E+06  0.00000000E+00  0.00000000E+00  2.94495204E+06
        55   78       7.80677394E-04  0.00000000E+00  2.94495204E+06  0.00000000E+00  2.94495204E+06
        55   79       1.15324578E-05  0.00000000E+00  5.13729682E+04  0.00000000E+00  5.13729682E+04
        55   67       1.15324578E-05  5.13729682E+04  0.00000000E+00  0.00000000E+00  5.13729682E+04
        55   80       1.06419588E-02  0.00000000E+00  8.99383447E+07  0.00000000E+00  8.99383447E+07
        55   68       1.06419588E-02  8.99383447E+07  0.00000000E+00  0.00000000E+00  8.99383447E+07
        55    9       1.14105952E-01  0.00000000E+00  0.00000000E+00  2.12578826E+09  2.12578826E+09
        36   49       1.56445584E-05  8.75390429E+03  0.00000000E+00  0.00000000E+00  8.75390429E+03
        36   82       4.39079047E-03  0.00000000E+00  0.00000000E+00  6.43168102E+06  6.43168102E+06
        36   84       5.43643962E-05  0.00000000E+00  0.00000000E+00  1.26903950E+05  1.26903950E+05
        36   85       7.67752748E-04  0.00000000E+00  0.00000000E+00  2.06445261E+06  2.06445261E+06
        36   50       4.23494960E-03  2.67906677E+07  0.00000000E+00  0.00000000E+00  2.67906677E+07
        36   86       8.77646234E-02  0.00000000E+00  0.00000000E+00  6.65869925E+08  6.65869925E+08
        36   51       4.24290409E-03  3.46456506E+07  0.00000000E+00  0.00000000E+00  3.46456506E+07
        36   13       4.24290409E-03  0.00000000E+00  3.46456506E+07  0.00000000E+00  3.46456506E+07
        36   14       1.58277798E-03  0.00000000E+00  1.32074810E+07  0.00000000E+00  1.32074810E+07
        36   15       4.75433804E-02  0.00000000E+00  5.80573711E+08  0.00000000E+00  5.80573711E+08
        36   52       4.75433804E-02  5.80573711E+08  0.00000000E+00  0.00000000E+00  5.80573711E+08
        36   53       4.05976263E-02  5.07860536E+08  0.00000000E+00  0.00000000E+00  5.07860536E+08
        24   49       1.56445584E-05  0.00000000E+00  8.75390429E+03  0.00000000E+00  8.75390429E+03
        24   70       4.39079047E-03  0.00000000E+00  0.00000000E+00  6.43168102E+06  6.43168102E+06
        24   72       5.43643962E-05  0.00000000E+00  0.00000000E+00  1.26903950E+05  1.26903950E+05
        24   73       7.67752748E-04  0.00000000E+00  0.00000000E+00  2.06445261E+06  2.06445261E+06
        24   50       4.23494960E-03  0.00000000E+00  2.67906677E+07  0.00000000E+00  2.67906677E+07
        24   74       8.77646234E-02  0.00000000E+00  0.00000000E+00  6.65869925E+08  6.65869925E+08
        24   51       4.24290409E-03  0.00000000E+00  3.46456506E+07  0.00000000E+00  3.46456506E+07
        24   13       4.24290409E-03  3.46456506E+07  0.00000000E+00  0.00000000E+00  3.46456506E+07
        24   14       1.58277798E-03  1.32074810E+07  0.00000000E+00  0.00000000E+00  1.32074810E+07
        24   15       4.75433804E-02  5.80573711E+08  0.00000000E+00  0.00000000E+00  5.80573711E+08
        24   52       4.75433804E-02  0.00000000E+00  5.80573711E+08  0.00000000E+00  5.80573711E+08
        24   53       4.05976263E-02  0.00000000E+00  5.07860536E+08  0.00000000E+00  5.07860536E+08
        56    4       5.03718135E-02  0.00000000E+00  0.00000000E+00  4.03539583E+07  4.03539583E+07
        56    5       1.12049722E-01  0.00000000E+00  0.00000000E+00  1.40991767E+08  1.40991767E+08
        56   79       1.95586758E-04  0.00000000E+00  6.52854045E+05  0.00000000E+00  6.52854045E+05
        56   67       1.95586758E-04  6.52854045E+05  0.00000000E+00  0.00000000E+00  6.52854045E+05
        56   80       7.33864425E-04  0.00000000E+00  5.05103830E+06  0.00000000E+00  5.05103830E+06
        56   68       7.33864425E-04  5.05103830E+06  0.00000000E+00  0.00000000E+00  5.05103830E+06
        56    7       1.79042392E-04  0.00000000E+00  0.00000000E+00  1.57596022E+06  1.57596022E+06
        56    8       4.11642784E-03  0.00000000E+00  0.00000000E+00  4.41890189E+07  4.41890189E+07
        56   10       1.01670183E-01  0.00000000E+00  0.00000000E+00  1.78900899E+09  1.78900899E+09
        56   11       4.75251635E-03  0.00000000E+00  0.00000000E+00  1.17155425E+08  1.17155425E+08
        56   12       2.71217084E-03  0.00000000E+00  0.00000000E+00  8.15613872E+07  8.15613872E+07
        31   44       1.78872480E-05  8.95346230E+03  0.00000000E+00  0.00000000E+00  8.95346230E+03
        31    3       1.78872480E-05  0.00000000E+00  8.95346230E+03  0.00000000E+00  8.95346230E+03
        31    4       5.88073843E-05  0.00000000E+00  3.13003477E+04  0.00000000E+00  3.13003477E+04
        31    5       9.30581013E-04  0.00000000E+00  8.50918712E+05  0.00000000E+00  8.50918712E+05
        31   77       5.18396614E-03  0.00000000E+00  0.00000000E+00  6.64956566E+06  6.64956566E+06
        31   79       2.41654329E-04  0.00000000E+00  0.00000000E+00  6.67107464E+05  6.67107464E+05
        31   80       6.67508608E-02  0.00000000E+00  0.00000000E+00  4.03296252E+08  4.03296252E+08
        31   45       6.18222445E-03  4.82073106E+07  0.00000000E+00  0.00000000E+00  4.82073106E+07
        31    6       6.18222445E-03  0.00000000E+00  4.82073106E+07  0.00000000E+00  4.82073106E+07
        31    7       1.21529041E-03  0.00000000E+00  9.53703804E+06  0.00000000E+00  9.53703804E+06
        31    8       3.03195635E-03  0.00000000E+00  2.93423984E+07  0.00000000E+00  2.93423984E+07
        31   46       9.53550822E-02  1.14449331E+09  0.00000000E+00  0.00000000E+00  1.14449331E+09
        31   47       7.38881652E-02  1.10498147E+09  0.00000000E+00  0.00000000E+00  1.10498147E+09
        31    9       7.38881652E-02  0.00000000E+00  1.10498147E+09  0.00000000E+00  1.10498147E+09
        31   10       1.13482406E-01  0.00000000E+00  1.84240207E+09  0.00000000E+00  1.84240207E+09
        31   11       4.82393918E-04  0.00000000E+00  1.11120569E+07  0.00000000E+00  1.11120569E+07
        31   12       1.72276471E-03  0.00000000E+00  4.87277582E+07  0.00000000E+00  4.87277582E+07
        19   44       1.78872480E-05  0.00000000E+00  8.95346230E+03  0.00000000E+00  8.95346230E+03
        19    3       1.78872480E-05  8.95346230E+03  0.00000000E+00  0.00000000E+00  8.95346230E+03
        19    4       5.88073843E-05  3.13003477E+04  0.00000000E+00  0.00000000E+00  3.13003477E+04
        19    5       9.30581013E-04  8.50918712E+05  0.00000000E+00  0.00000000E+00  8.50918712E+05
        19   65       5.18396614E-03  0.00000000E+00  0.00000000E+00  6.64956566E+06  6.64956566E+06
        19   67       2.41654329E-04  0.00000000E+00  0.00000000E+00  6.67107464E+05  6.67107464E+05
        19   68       6.67508608E-02  0.00000000E+00  0.00000000E+00  4.03296252E+08  4.03296252E+08
        19   45       6.18222445E-03  0.00000000E+00  4.82073106E+07  0.00000000E+00  4.82073106E+07
        19    6       6.18222445E-03  4.82073106E+07  0.00000000E+00  0.00000000E+00  4.82073106E+07
        19    7       1.21529041E-03  9.53703804E+06  0.00000000E+00  0.00000000E+00  9.53703804E+06
        19    8       3.03195635E-03  2.93423984E+07  0.00000000E+00  0.00000000E+00  2.93423984E+07
        19   46       9.53550822E-02  0.00000000E+00  1.14449331E+09  0.00000000E+00  1.14449331E+09
        19   47       7.38881652E-02  0.00000000E+00  1.10498147E+09  0.00000000E+00  1.10498147E+09
        19    9       7.38881652E-02  1.10498147E+09  0.00000000E+00  0.00000000E+00  1.10498147E+09
        19   10       1.13482406E-01  1.84240207E+09  0.00000000E+00  0.00000000E+00  1.84240207E+09
        19   11       4.82393918E-04  1.11120569E+07  0.00000000E+00  0.00000000E+00  1.11120569E+07
        19   12       1.72276471E-03  4.87277582E+07  0.00000000E+00  0.00000000E+00  4.87277582E+07
        25   49       4.54536021E-04  0.00000000E+00  1.91735952E+04  0.00000000E+00  1.91735952E+04
        25   70       2.11495651E-04  0.00000000E+00  0.00000000E+00  9.42750360E+04  9.42750360E+04
        25   72       1.21085168E-04  0.00000000E+00  0.00000000E+00  1.17528181E+05  1.17528181E+05
        25   73       1.76662927E-03  0.00000000E+00  0.00000000E+00  2.12658785E+06  2.12658785E+06
        25   50       2.51785637E-04  0.00000000E+00  9.79662202E+05  0.00000000E+00  9.79662202E+05
        25   74       1.94971356E-02  0.00000000E+00  0.00000000E+00  9.53815281E+07  9.53815281E+07
        25   51       6.30490242E-04  0.00000000E+00  3.37863826E+06  0.00000000E+00  3.37863826E+06
        25   13       6.30490242E-04  3.37863826E+06  0.00000000E+00  0.00000000E+00  3.37863826E+06
        25   14       1.04387199E-03  5.74536030E+06  0.00000000E+00  0.00000000E+00  5.74536030E+06
        25   15       8.95845685E-03  7.80584076E+07  0.00000000E+00  0.00000000E+00  7.80584076E+07
        25   52       8.95845685E-03  0.00000000E+00  7.80584076E+07  0.00000000E+00  7.80584076E+07
        25   53       1.63097041E-02  0.00000000E+00  1.46224900E+08  0.00000000E+00  1.46224900E+08
        37   49       4.54536021E-04  1.91735952E+04  0.00000000E+00  0.00000000E+00  1.91735952E+04
        37   82       2.11495651E-04  0.00000000E+00  0.00000000E+00  9.42750360E+04  9.42750360E+04
        37   84       1.21085168E-04  0.00000000E+00  0.00000000E+00  1.17528181E+05  1.17528181E+05
        37   85       1.76662927E-03  0.00000000E+00  0.00000000E+00  2.12658785E+06  2.12658785E+06
        37   50       2.51785637E-04  9.79662202E+05  0.00000000E+00  0.00000000E+00  9.79662202E+05
        37   86       1.94971356E-02  0.00000000E+00  0.00000000E+00  9.53815281E+07  9.53815281E+07
        37   51       6.30490242E-04  3.37863826E+06  0.00000000E+00  0.00000000E+00  3.37863826E+06
        37   13       6.30490242E-04  0.00000000E+00  3.37863826E+06  0.00000000E+00  3.37863826E+06
        37   14       1.04387199E-03  0.00000000E+00  5.74536030E+06  0.00000000E+00  5.74536030E+06
        37   15       8.95845685E-03  0.00000000E+00  7.80584076E+07  0.00000000E+00  7.80584076E+07
        37   52       8.95845685E-03  7.80584076E+07  0.00000000E+00  0.00000000E+00  7.80584076E+07
        37   53       1.63097041E-02  1.46224900E+08  0.00000000E+00  0.00000000E+00  1.46224900E+08
        32   44       1.19007023E-03  1.54578852E+05  0.00000000E+00  0.00000000E+00  1.54578852E+05
        32    3       1.19007023E-03  0.00000000E+00  1.54578852E+05  0.00000000E+00  1.54578852E+05
        32    4       7.44066952E-04  0.00000000E+00  1.08840994E+05  0.00000000E+00  1.08840994E+05
        32    5       8.13873810E-03  0.00000000E+00  3.01996837E+06  0.00000000E+00  3.01996837E+06
        32   77       1.24643942E-03  0.00000000E+00  0.00000000E+00  7.69024807E+05  7.69024807E+05
        32   79       5.33152081E-03  0.00000000E+00  0.00000000E+00  9.21110983E+06  9.21110983E+06
        32   80       4.21904868E-02  0.00000000E+00  0.00000000E+00  1.87999703E+08  1.87999703E+08
        32   45       2.28526161E-03  1.36652523E+07  0.00000000E+00  0.00000000E+00  1.36652523E+07
        32    6       2.28526161E-03  0.00000000E+00  1.36652523E+07  0.00000000E+00  1.36652523E+07
        32    7       1.32445923E-03  0.00000000E+00  7.97769501E+06  0.00000000E+00  7.97769501E+06
        32    8       5.69811284E-04  0.00000000E+00  4.35258559E+06  0.00000000E+00  4.35258559E+06
        32   46       3.22182708E-02  3.13095201E+08  0.00000000E+00  0.00000000E+00  3.13095201E+08
        32   47       1.36674793E-03  1.69350263E+07  0.00000000E+00  0.00000000E+00  1.69350263E+07
        32    9       1.36674793E-03  0.00000000E+00  1.69350263E+07  0.00000000E+00  1.69350263E+07
        32   10       2.32629577E-04  0.00000000E+00  3.15411735E+06  0.00000000E+00  3.15411735E+06
        32   11       2.00379371E-01  0.00000000E+00  3.97231379E+09  0.00000000E+00  3.97231379E+09
        20   44       1.19007023E-03  0.00000000E+00  1.54578852E+05  0.00000000E+00  1.54578852E+05
        20    3       1.19007023E-03  1.54578852E+05  0.00000000E+00  0.00000000E+00  1.54578852E+05
        20    4       7.44066952E-04  1.08840994E+05  0.00000000E+00  0.00000000E+00  1.08840994E+05
        20    5       8.13873810E-03  3.01996837E+06  0.00000000E+00  0.00000000E+00  3.01996837E+06
        20   65       1.24643942E-03  0.00000000E+00  0.00000000E+00  7.69024807E+05  7.69024807E+05
        20   67       5.33152081E-03  0.00000000E+00  0.00000000E+00  9.21110983E+06  9.21110983E+06
        20   68       4.21904868E-02  0.00000000E+00  0.00000000E+00  1.87999703E+08  1.87999703E+08
        20   45       2.28526161E-03  0.00000000E+00  1.36652523E+07  0.00000000E+00  1.36652523E+07
        20    6       2.28526161E-03  1.36652523E+07  0.00000000E+00  0.00000000E+00  1.36652523E+07
        20    7       1.32445923E-03  7.97769502E+06  0.00000000E+00  0.00000000E+00  7.97769502E+06
        20    8       5.69811284E-04  4.35258559E+06  0.00000000E+00  0.00000000E+00  4.35258559E+06
        20   46       3.22182708E-02  0.00000000E+00  3.13095201E+08  0.00000000E+00  3.13095201E+08
        20   47       1.36674793E-03  0.00000000E+00  1.69350263E+07  0.00000000E+00  1.69350263E+07
        20    9       1.36674793E-03  1.69350263E+07  0.00000000E+00  0.00000000E+00  1.69350263E+07
        20   10       2.32629577E-04  3.15411735E+06  0.00000000E+00  0.00000000E+00  3.15411735E+06
        20   11       2.00379371E-01  3.97231379E+09  0.00000000E+00  0.00000000E+00  3.97231379E+09
        49   38       1.22904251E-03  2.13510978E+05  0.00000000E+00  0.00000000E+00  2.13510978E+05
        49   26       1.22904251E-03  0.00000000E+00  2.13510978E+05  0.00000000E+00  2.13510978E+05
        49   39       1.61343818E-04  7.27916343E+05  0.00000000E+00  0.00000000E+00  7.27916343E+05
        49   27       1.61343818E-04  0.00000000E+00  7.27916343E+05  0.00000000E+00  7.27916343E+05
        49   29       3.07088545E-03  0.00000000E+00  1.77644337E+07  0.00000000E+00  1.77644337E+07
        49   41       3.07088545E-03  1.77644337E+07  0.00000000E+00  0.00000000E+00  1.77644337E+07
        49   97       2.01101515E-04  0.00000000E+00  0.00000000E+00  1.29197440E+06  1.29197440E+06
        75   99       2.01577663E-03  0.00000000E+00  1.84690704E+05  0.00000000E+00  1.84690704E+05
        75   30       1.41639350E-01  0.00000000E+00  0.00000000E+00  4.14028924E+08  4.14028924E+08
        87   99       2.01577663E-03  1.84690704E+05  0.00000000E+00  0.00000000E+00  1.84690704E+05
        87   42       1.41639350E-01  0.00000000E+00  0.00000000E+00  4.14028924E+08  4.14028924E+08
        44   33       1.03687324E-03  1.12177768E+06  0.00000000E+00  0.00000000E+00  1.12177768E+06
        44   21       1.03687324E-03  0.00000000E+00  1.12177768E+06  0.00000000E+00  1.12177768E+06
        44   22       1.51055926E-03  0.00000000E+00  7.11482486E+06  0.00000000E+00  7.11482486E+06
        44   34       1.51055926E-03  7.11482486E+06  0.00000000E+00  0.00000000E+00  7.11482486E+06
        44   91       6.87408608E-04  0.00000000E+00  0.00000000E+00  3.85980370E+06  3.85980370E+06
        44   23       2.35524010E-03  0.00000000E+00  1.47435130E+07  0.00000000E+00  1.47435130E+07
        44   35       2.35524010E-03  1.47435130E+07  0.00000000E+00  0.00000000E+00  1.47435130E+07
         3   33       1.03687324E-03  0.00000000E+00  1.12177768E+06  0.00000000E+00  1.12177768E+06
         3   21       1.03687324E-03  1.12177768E+06  0.00000000E+00  0.00000000E+00  1.12177768E+06
         3   22       1.51055926E-03  7.11482486E+06  0.00000000E+00  0.00000000E+00  7.11482486E+06
         3   34       1.51055926E-03  0.00000000E+00  7.11482486E+06  0.00000000E+00  7.11482486E+06
         3   57       6.87408608E-04  0.00000000E+00  0.00000000E+00  3.85980370E+06  3.85980370E+06
         3   23       2.35524010E-03  1.47435130E+07  0.00000000E+00  0.00000000E+00  1.47435130E+07
         3   35       2.35524010E-03  0.00000000E+00  1.47435130E+07  0.00000000E+00  1.47435130E+07
         4   33       4.06849411E-04  0.00000000E+00  4.21691274E+05  0.00000000E+00  4.21691274E+05
         4   21       4.06849411E-04  4.21691274E+05  0.00000000E+00  0.00000000E+00  4.21691274E+05
         4   22       2.52883344E-04  1.16700420E+06  0.00000000E+00  0.00000000E+00  1.16700420E+06
         4   34       2.52883344E-04  0.00000000E+00  1.16700420E+06  0.00000000E+00  1.16700420E+06
        38   85       4.23064394E-04  0.00000000E+00  0.00000000E+00  9.54434441E+04  9.54434441E+04
        38   50       1.12963655E-04  2.05980698E+05  0.00000000E+00  0.00000000E+00  2.05980698E+05
[...]
        82   41            39.594514  1.75895378E-02  1.26004507E-02
        82   97           902.469469  1.41808133E-03  1.41458805E-04
        82   63           111.441648  2.32566671E-03  1.09990947E-03
        82   98      ---------------  3.05989458E-04 below threshold
         5   33      --------------- below threshold  2.65449908E-02
         5   21      --------------- below threshold  2.65449908E-02
         5   22           186.274209  5.31575072E-04  1.85687378E-04
         5   34           186.274209  5.31575072E-04  1.85687378E-04
        83   60            97.135865  2.72631577E-04  9.51880989E-03
        83   95            97.135865  2.72631577E-04  9.51880988E-03
        83   40            45.077647  1.21651507E-01  8.38526882E-02
        71   60            97.135865  2.72631577E-04  9.51880988E-03
        71   95            97.135865  2.72631577E-04  9.51880989E-03
        71   28            45.077647  1.21651507E-01  8.38526882E-02
        65   90           238.650571  8.42869441E-04  2.48890601E-04
        65   21      --------------- below threshold  2.50368938E-03
        65   22            48.559363  1.06559632E-01  7.17286541E-02
        65   91            13.004114  1.30133334E-02  1.15158050E-02
        65   57            13.004114  1.30133334E-02  1.15158050E-02
        77   90           238.650571  8.42869441E-04  2.48890601E-04
        77   33      --------------- below threshold  2.50368938E-03
        77   34            48.559363  1.06559632E-01  7.17286541E-02
        77   91            13.004114  1.30133334E-02  1.15158050E-02
        77   57            13.004114  1.30133334E-02  1.15158050E-02
        72   61      --------------- below threshold  1.42980531E-04
        72   96          1647.261762  3.87996025E-04  2.22059473E-05
        72   27            41.600313  4.43764392E-03  3.13392239E-03
        72   29            38.384671  1.02169999E-01  7.38304309E-02
        72   97            41.178922  2.26051984E-02  1.60117375E-02
        72   63            58.426271  8.25319424E-04  1.98519460E-03
        72   98            34.338259  1.66566658E-02  1.23990485E-02
        84   61      --------------- below threshold  1.42980531E-04
        84   96          1647.261762  3.87996025E-04  2.22059473E-05
        84   39            41.600313  4.43764392E-03  3.13392239E-03
        84   41            38.384671  1.02169999E-01  7.38304309E-02
        84   97            41.178922  2.26051984E-02  1.60117375E-02
        84   63            58.426271  8.25319424E-04  1.98519460E-03
        84   98            34.338259  1.66566658E-02  1.23990485E-02
        60   73      --------------- below threshold  2.05434632E-03
        60   85      --------------- below threshold  2.05434632E-03
        60   74            14.692507  2.36673912E-04  2.06355166E-04
        60   86            14.692507  2.36673912E-04  2.06355166E-04
        60   13            26.264326  4.14937135E-03  5.62735933E-03
        60   15            22.166912  2.95327773E-02  3.79437305E-02
        95   73      --------------- below threshold  2.05434632E-03
        95   85      --------------- below threshold  2.05434632E-03
        95   74            14.692507  2.36673912E-04  2.06355166E-04
        95   86            14.692507  2.36673912E-04  2.06355166E-04
        95   51            26.264326  4.14937135E-03  5.62735933E-03
        95   52            22.166912  2.95327773E-02  3.79437305E-02
        73   61            99.599451  1.07268858E-04  2.67804640E-02
        73   96            99.808953  1.84692055E-05  9.66736285E-03
        73   62            85.076682  4.48480141E-05  3.00523066E-04
        73   27            14.984896  8.63474847E-04  1.01567228E-03
        73   29            11.076321  5.21306333E-04  4.69322650E-04
        73   97            32.701501  6.56149267E-04  9.74983512E-04
        73   98            97.761389  1.66903204E-05  7.45566057E-04
        85   61            99.599451  1.07268858E-04  2.67804640E-02
        85   96            99.808953  1.84692055E-05  9.66736285E-03
        85   62            85.076682  4.48480141E-05  3.00523066E-04
        85   39            14.984896  8.63474847E-04  1.01567228E-03
        85   41            11.076321  5.21306333E-04  4.69322650E-04
        85   97            32.701501  6.56149267E-04  9.74983512E-04
        85   98            97.761389  1.66903204E-05  7.45566057E-04
        61   74            99.195789  3.75254117E-05  4.66611725E-03
        61   86            99.195789  3.75254117E-05  4.66611725E-03
        61   14            24.337319  3.94511344E-03  5.21408097E-03
        96   50          1773.253351  5.29272347E-04  2.82541786E-05
        96   74            82.800146  2.39399237E-04  1.39186788E-03
        96   86            82.800146  2.39399237E-04  1.39186788E-03
        96   53            88.614578  2.55836929E-04  2.24705703E-03
        66   91           241.375131  7.75130092E-03  2.27061090E-03
        66   57           241.375131  7.75130092E-03  2.27061090E-03
        66   23            34.534353  1.38825355E-01  1.03189522E-01
        78   91           241.375131  7.75130092E-03  2.27061090E-03
        78   57           241.375131  7.75130092E-03  2.27061090E-03
        78   35            34.534353  1.38825355E-01  1.03189522E-01
        79   90      --------------- below threshold  3.40392208E-02
        79   33            99.862632  1.22357074E-04  8.90727030E-02
        79   34            27.320403  1.74518319E-03  2.40120099E-03
        79   91           135.421797  1.57176321E-03  6.67637077E-04
        79   57           135.421797  1.57176321E-03  6.67637077E-04
        79   92      ---------------  2.86029834E-04 below threshold
        67   90      --------------- below threshold  3.40392208E-02
        67   21            99.862632  1.22357074E-04  8.90727030E-02
        67   22            27.320403  1.74518319E-03  2.40120099E-03
        67   91           135.421797  1.57176321E-03  6.67637077E-04
        67   57           135.421797  1.57176321E-03  6.67637077E-04
        67   92      ---------------  2.86029834E-04 below threshold
        90   80            52.301259  2.26513251E-04  4.74883085E-04
        90   68            52.301259  2.26513251E-04  4.74883085E-04
        90   46            31.689062  2.83986250E-03  4.15725883E-03
        33   80            49.802065  3.25207575E-02  6.47850499E-02
        33   45      --------------- below threshold  4.73578849E-05
        33    6      --------------- below threshold  4.73578849E-05
        33    7            91.385073  1.72430129E-05  2.00152749E-04
        33   46          5528.166431  1.75211315E-03  3.11311539E-05
        33   47            19.824774  3.92731627E-04  3.27754949E-04
        33    9            19.824774  3.92731627E-04  3.27754949E-04
        33   10            75.185717  1.06801923E-03  4.30405027E-03
        33   11            79.774139  1.06278795E-01  5.91179552E-02
        33   12           225.142675  5.02736787E-05  1.54620364E-05
        21   68            49.802065  3.25207575E-02  6.47850499E-02
        21   45      --------------- below threshold  4.73578849E-05
        21    6      --------------- below threshold  4.73578849E-05
        21    7            91.385073  1.72430129E-05  2.00152749E-04
        21   46          5528.166432  1.75211315E-03  3.11311539E-05
        21   47            19.824774  3.92731627E-04  3.27754949E-04
        21    9            19.824774  3.92731627E-04  3.27754949E-04
        21   10            75.185717  1.06801923E-03  4.30405027E-03
        21   11            79.774139  1.06278795E-01  5.91179552E-02
        21   12           225.142675  5.02736787E-05  1.54620364E-05
        54   30            98.114407  3.17501899E-04  1.68383082E-02
        54   42            98.114407  3.17501899E-04  1.68383082E-02
        16   30            98.114407  3.17501899E-04  1.68383082E-02
        16   42            98.114407  3.17501899E-04  1.68383082E-02
        17   30            97.702696  2.26794186E-04  9.87218776E-03
        17   42            97.702696  2.26794186E-04  9.87218776E-03
        30   18           151.765597  4.50408672E-03  1.78900007E-03
        42   18           151.765597  4.50408672E-03  1.78900007E-03
        50   39            93.534868  6.43531569E-04  9.95388189E-03
        50   27            93.534868  6.43531569E-04  9.95388189E-03
        50   29            95.376617  5.43374804E-05  1.17527542E-03
        50   41            95.376617  5.43374804E-05  1.17527542E-03
        50   97            72.014093  2.62380917E-03  9.37546590E-03
        62   74            93.927816  3.90982604E-04  6.43891180E-03
        62   86            93.927816  3.90982604E-04  6.43891180E-03
        62   14      --------------- below threshold  1.33677202E-04
        74   27            94.230158  1.76698233E-04  3.06244510E-03
        74   29            87.533355  2.97034132E-05  2.38263091E-04
        74   97            81.046615  5.97920992E-05  3.15469233E-04
        74   63            89.432214  4.55513637E-05  4.31039815E-04
        74   98           139.013084  1.36330538E-03  5.70389436E-04
        86   39            94.230158  1.76698233E-04  3.06244510E-03
        86   41            87.533355  2.97034132E-05  2.38263091E-04
        86   97            81.046615  5.97920992E-05  3.15469233E-04
        86   63            89.432214  4.55513637E-05  4.31039815E-04
        86   98           139.013084  1.36330538E-03  5.70389436E-04
        80   34            82.558871  5.87848706E-04  3.22005008E-04
        80   91            63.316705  1.61281034E-04  4.39657976E-04
        80   57            63.316705  1.61281034E-04  4.39657976E-04
        80   92           340.176621  8.78207633E-03  1.99512557E-03
        68   22            82.558871  5.87848706E-04  3.22005008E-04
        68   91            63.316705  1.61281034E-04  4.39657976E-04
        68   57            63.316705  1.61281034E-04  4.39657976E-04
        68   92           340.176621  8.78207633E-03  1.99512557E-03
        51   39      --------------- below threshold  9.87816165E-03
        51   27      --------------- below threshold  9.87816165E-03
        51   40            96.618572  3.52125876E-04  1.04135251E-02
        51   28            96.618572  3.52125876E-04  1.04135251E-02
        51   29            98.764605  7.77488484E-05  6.29343919E-03
        51   41            98.764605  7.77488484E-05  6.29343919E-03
        13   39      --------------- below threshold  9.87816165E-03
        13   27      --------------- below threshold  9.87816165E-03
        13   40            96.618572  3.52125876E-04  1.04135251E-02
        13   28            96.618572  3.52125876E-04  1.04135251E-02
        13   29            98.764605  7.77488484E-05  6.29343919E-03
        13   41            98.764605  7.77488484E-05  6.29343919E-03
        39   14      --------------- below threshold  9.23450794E-02
        39   15      ---------------  3.25211753E-05 below threshold
        39   52      ---------------  3.25211753E-05 below threshold
        39   53            82.248477  1.24635739E-03  7.02112919E-03
        27   14      --------------- below threshold  9.23450794E-02
        27   15      ---------------  3.25211753E-05 below threshold
        27   52      ---------------  3.25211753E-05 below threshold
        27   53            82.248477  1.24635739E-03  7.02112919E-03
        14   29            98.293999  1.75133005E-04  1.02657020E-02
        14   41            98.293999  1.75133005E-04  1.02657020E-02
        14   63      --------------- below threshold  1.01403125E-05
        40   15            96.959710  4.82856729E-04  1.58819278E-02
        40   52            96.959710  4.82856729E-04  1.58819278E-02
        28   15            96.959710  4.82856729E-04  1.58819278E-02
        28   52            96.959710  4.82856729E-04  1.58819278E-02
        29   15      ---------------  1.17378749E-04 below threshold
        29   52      ---------------  1.17378749E-04 below threshold
        29   53            91.477420  4.47373612E-05  5.24927470E-04
        41   15      ---------------  1.17378749E-04 below threshold
        41   52      ---------------  1.17378749E-04 below threshold
        41   53            91.477420  4.47373612E-05  5.24927470E-04
        45   22            99.734620  2.97471740E-05  1.12092644E-02
        45   34            99.734620  2.97471740E-05  1.12092644E-02
        45   91            79.482400  2.29397403E-03  1.11805185E-02
        45   23            95.729136  5.05178384E-04  1.18284810E-02
        45   35            95.729136  5.05178384E-04  1.18284810E-02
         6   22            99.734620  2.97471740E-05  1.12092644E-02
         6   34            99.734620  2.97471740E-05  1.12092644E-02
         6   57            79.482400  2.29397403E-03  1.11805185E-02
         6   23            95.729136  5.05178384E-04  1.18284810E-02
         6   35            95.729136  5.05178384E-04  1.18284810E-02
         7   22            99.773168  7.71889965E-05  3.40291399E-02
         7   34            99.773168  7.71889965E-05  3.40291399E-02
        22    8            99.801152  1.17491285E-05  5.90859572E-03
        22   46            75.396021  3.90755784E-03  1.58818126E-02
        22   47      --------------- below threshold  2.63351940E-04
        22    9      --------------- below threshold  2.63351940E-04
        22   10      --------------- below threshold  3.96244171E-03
        22   11            94.263144  1.69670106E-05  2.95754522E-04
        22   12            27.024549  1.65111047E-03  2.26255603E-03
        34    8            99.801152  1.17491285E-05  5.90859572E-03
        34   46            75.396021  3.90755784E-03  1.58818126E-02
        34   47      --------------- below threshold  2.63351940E-04
        34    9      --------------- below threshold  2.63351940E-04
        34   10      --------------- below threshold  3.96244171E-03
        34   11            94.263144  1.69670106E-05  2.95754522E-04
        34   12            27.024549  1.65111047E-03  2.26255603E-03
        97   53            95.563039  2.12737884E-03  4.79467536E-02
        91   47            65.298637  2.90756096E-02  8.37880920E-02
        57    9            65.298637  2.90756096E-02  8.37880920E-02
        53   98            19.563632  1.14561487E-02  9.58163324E-03
        23   47            99.546824  3.16429779E-05  6.98248620E-03
        23    9            99.546824  3.16429779E-05  6.98248620E-03
        35   47            99.546824  3.16429779E-05  6.98248620E-03
        35    9            99.546824  3.16429779E-05  6.98248620E-03
        46   92          1419.045184  5.73525034E-03  3.77556270E-04
     ---------------------------------------------------------------

 Number of problematic transitions =                   538

--

 Electric-dipole - electric-octupole not included
 Electric-dipole - magnetic-quadrupole not included


      ****************************************************************************************************
      *                                                                                                  *
      *                                    Special properties section                                    *
      *                                                                                                  *
      ****************************************************************************************************


++ I/O STATISTICS
 
  I. General I/O information
  - - - - - - - - - - - - - - - - - - - - - - - - - - - - - - - - - - - - - - - - - - -
  Unit  Name          Flsize      Write/Read            MBytes           Write/Read
                      (MBytes)       Calls              In/Out           Time, sec.
  - - - - - - - - - - - - - - - - - - - - - - - - - - - - - - - - - - - - - - - - - - -
   1  RUNFILE           0.99 .     266/  263027 .      2.5/   1902.8 .       0/       0
   2  ANNI              0.00 .       0/       0 .      0.0/      0.0 .       0/       0
   3  ONEINT            1.54 .       0/  126040 .      0.0/ 152831.4 .       0/      19
   4  JOBIPH            1.52 .       0/     651 .      0.0/      1.5 .       0/       0
   5  JOBIPH01          1.22 .       0/     219 .      0.0/      1.3 .       0/       0
   6  JOBIPH02          1.22 .       0/     219 .      0.0/      1.3 .       0/       0
   7  JOBIPH03          1.28 .       0/     315 .      0.0/      1.4 .       0/       0
   8  JOBIPH04          1.32 .       0/     363 .      0.0/      1.4 .       0/       0
   9  JOBIPH05          1.15 .       0/     123 .      0.0/      1.3 .       0/       0
  10  JOBIPH06          1.28 .       0/     315 .      0.0/      1.4 .       0/       0
  11  JOBIPH07          1.32 .       0/     363 .      0.0/      1.4 .       0/       0
  12  JOBIPH08          1.15 .       0/     123 .      0.0/      1.3 .       0/       0
  13  JOBIPH09          1.28 .       0/     315 .      0.0/      1.4 .       0/       0
  14  JOBIPH10          1.32 .       0/     363 .      0.0/      1.4 .       0/       0
  15  JOBIPH11          1.15 .       0/     123 .      0.0/      1.3 .       0/       0
  16  JOBIPH12          1.22 .       0/     219 .      0.0/      1.3 .       0/       0
  17  JOBIPH13          1.32 .       0/     363 .      0.0/      1.4 .       0/       0
  18  JOBIPH14          1.28 .       0/     315 .      0.0/      1.4 .       0/       0
  19  JOBIPH15          1.32 .       0/     363 .      0.0/      1.4 .       0/       0
  20  JOBIPH16          1.15 .       0/     123 .      0.0/      1.3 .       0/       0
  21  JOBIPH17          1.28 .       0/     315 .      0.0/      1.4 .       0/       0
  22  JOBIPH18          1.32 .       0/     363 .      0.0/      1.4 .       0/       0
  23  JOBIPH19          1.15 .       0/     123 .      0.0/      1.3 .       0/       0
  24  JOBIPH20          1.28 .       0/     315 .      0.0/      1.4 .       0/       0
  25  JOBIPH21          1.32 .       0/     363 .      0.0/      1.4 .       0/       0
  26  JOBIPH22          1.15 .       0/     123 .      0.0/      1.3 .       0/       0
  - - - - - - - - - - - - - - - - - - - - - - - - - - - - - - - - - - - - - - - - - - -
   *  TOTAL            31.50 .     266/  395544 .      2.5/ 154765.3 .       0/      19
  - - - - - - - - - - - - - - - - - - - - - - - - - - - - - - - - - - - - - - - - - - -
 
  II. I/O Access Patterns
  - - - - - - - - - - - - - - - - - - - -
  Unit  Name               % of random
                         Write/Read calls
  - - - - - - - - - - - - - - - - - - - -
   1  RUNFILE             28.6/  11.1
   2  ANNI                 0.0/   0.0
   3  ONEINT               0.0/  99.3
   4  JOBIPH               0.0/  51.9
   5  JOBIPH01             0.0/  55.7
   6  JOBIPH02             0.0/  55.7
   7  JOBIPH03             0.0/  54.0
   8  JOBIPH04             0.0/  53.4
   9  JOBIPH05             0.0/  60.2
  10  JOBIPH06             0.0/  54.0
  11  JOBIPH07             0.0/  53.4
  12  JOBIPH08             0.0/  60.2
  13  JOBIPH09             0.0/  54.0
  14  JOBIPH10             0.0/  53.4
  15  JOBIPH11             0.0/  60.2
  16  JOBIPH12             0.0/  55.7
  17  JOBIPH13             0.0/  53.4
  18  JOBIPH14             0.0/  54.0
  19  JOBIPH15             0.0/  53.4
  20  JOBIPH16             0.0/  60.2
  21  JOBIPH17             0.0/  54.0
  22  JOBIPH18             0.0/  53.4
  23  JOBIPH19             0.0/  60.2
  24  JOBIPH20             0.0/  54.0
  25  JOBIPH21             0.0/  53.4
  26  JOBIPH22             0.0/  60.2
  - - - - - - - - - - - - - - - - - - - -
--
--- Stop Module: rassi at Thu Apr 17 10:49:07 2025 /rc=_RC_ALL_IS_WELL_ ---
--- Module rassi spent 41 seconds ---

.##################.
.# Happy landing! #.
.##################.

    Timing: Wall=41.67 User=19.73 System=20.64
