   This run of MOLCAS is using the pymolcas driver

                             OPE
                             OPE          NMOL  CASOP  ENMOLC A   SO
                 OPE        NMOLC        AS  OP EN  MO LC     AS  OP
                OPENM       OL CA        SO  PE NM  OL CA     SOP EN
                OP EN      MO   LC       AS  OP ENMOL  CASO   PENMOL
                OP  EN     MO   LC       AS  OP EN     MO     LC ASO
               OP   E  NMOL  C  AS       OP  EN MO     LC     AS  OP
               OP  E   NMO   LC AS        OPEN  MO     LCASOP EN   M
               O  PEN   MO  LCA  SO
            OPE   NMO   L   CAS    OP
        OPENMOL  CASOP     ENMOL   CASOPE
     OPENMOLCA   SOPENMOLCASOPEN   MOLCASOPE
    OPENMOLCAS   OP           EN   MOL    CAS
    OPENMOLCAS       OP  ENM        O     LCA
    OPENMOLCAS    OPEN  MOLCASO     P  E  NMO
    OPENMOLCAS     OP               E  N  MOL
    OPENMOLCA   SO           PENM   O  L  CAS    OPEN    MO    LCAS
    OPENMOLCA   SOP           ENM   O  L  CAS   OP  EN  MOLC  AS   O
    OPENMOLCA   SOPE           NM      O  LCA   S      OP  EN MO
    OPENMOLC                AS         O  PEN   M      OL  CA  SOPE
    OPENMO        LCASOPE  NMOL        C  ASO   P      ENMOLC     AS
    OPE     NMO      LCA  SO     P     E   NM   OL  CA SO  PE N   MO
          OPENMOLCA            SOPE   NMO        LCAS  O    P  ENMO
     OPENMOLCASOPENMOLCASOPENMOLCASOPENMOLCA
        OPENMOLCASOPENMOLCASOPENMOLCASOPE
            OPENMOLCASOPENMOLCASOPENM
               OPENMOLCASOPENMOLCA        version: 25.02
                   OPENMOLCASO
                       OPE                tag: 92-gf4b470f0a

 OpenMolcas is free software; you can redistribute it and/or modify it
 under the terms of the GNU Lesser General Public License version 2.1.
 OpenMolcas is distributed in the hope that it will be useful, but it
 is provided "as is" and without any express or implied warranties.
 For more details see the full text of the license in the file
 LICENSE or in <http://www.gnu.org/licenses/>.

                 Copyright (C) The OpenMolcas Authors
           For the author list and the recommended citation,
                   consult the file CONTRIBUTORS.md

           *************************************************
           * pymolcas version py2.29                       *
           *   build 2ba4516c4d154a59cba941070ba63e2c      *
           *   (after the EMIL interpreter by V. Veryazov) *
           *************************************************

configuration info
------------------
Host name: iftia91.univ.gda.pl (Linux)
C Compiler ID: GNU
C flags: -std=gnu99
Fortran Compiler ID: GNU
Fortran flags: -cpp -fdefault-integer-8 -fmax-stack-var-size=1048576
Definitions: _MOLCAS_;_I8_;_LINUX_
Parallel: OFF (GA=OFF)


   --------------------------------------------------------------------
  |
  |           Project: O2
  |    Submitted from: /scratch/tecumseh/WorkSpace/O2.0.5500
  |      Scratch area: /scratch/tecumseh/WorkSpace/O2.0.5500
  |   Save outputs to: WORKDIR
  |            Molcas: /home/tecumseh/program/OpenMolcas/build
  |
  | Scratch area is NOT empty
  |
  |    MOLCAS_DRIVER = /home/tecumseh/program/OpenMolcas/build/pymolcas
  |    MOLCAS_NPROCS = 1
  |    MOLCAS_SOURCE = /home/tecumseh/program/OpenMolcas/OpenMolcas
  | MOLCAS_STRUCTURE = 0
  |
   --------------------------------------------------------------------

++ ---------   Input file   ---------

>>> COPY $dir/vectors/$Project.$R.1Ag-12S.JobIph $WorkDir/JOBIPH

>>> COPY $dir/vectors/$Project.$R.3Ag-3S.JobIph $WorkDir/JOBIPH01

>>> COPY $dir/vectors/$Project.$R.5Ag-3S.JobIph $WorkDir/JOBIPH02

>>> COPY $dir/vectors/$Project.$R.1B3u-5S.JobIph $WorkDir/JOBIPH03

>>> COPY $dir/vectors/$Project.$R.3B3u-6S.JobIph $WorkDir/JOBIPH04

>>> COPY $dir/vectors/$Project.$R.5B3u-1S.JobIph $WorkDir/JOBIPH05

>>> COPY $dir/vectors/$Project.$R.1B2u-5S.JobIph $WorkDir/JOBIPH06

>>> COPY $dir/vectors/$Project.$R.3B2u-6S.JobIph $WorkDir/JOBIPH07

>>> COPY $dir/vectors/$Project.$R.5B2u-1S.JobIph $WorkDir/JOBIPH08

>>> COPY $dir/vectors/$Project.$R.1B1g-5S.JobIph $WorkDir/JOBIPH09

>>> COPY $dir/vectors/$Project.$R.3B1g-6S.JobIph $WorkDir/JOBIPH10

>>> COPY $dir/vectors/$Project.$R.5B1g-1S.JobIph $WorkDir/JOBIPH11

>>> COPY $dir/vectors/$Project.$R.1B1u-3S.JobIph $WorkDir/JOBIPH12

>>> COPY $dir/vectors/$Project.$R.3B1u-6S.JobIph $WorkDir/JOBIPH13

>>> COPY $dir/vectors/$Project.$R.1B2g-5S.JobIph $WorkDir/JOBIPH14

>>> COPY $dir/vectors/$Project.$R.3B2g-6S.JobIph $WorkDir/JOBIPH15

>>> COPY $dir/vectors/$Project.$R.5B2g-1S.JobIph $WorkDir/JOBIPH16

>>> COPY $dir/vectors/$Project.$R.1B3g-5S.JobIph $WorkDir/JOBIPH17

>>> COPY $dir/vectors/$Project.$R.3B3g-6S.JobIph $WorkDir/JOBIPH18

>>> COPY $dir/vectors/$Project.$R.5B3g-1S.JobIph $WorkDir/JOBIPH19

>>> COPY $dir/vectors/$Project.$R.1Au-5S.JobIph $WorkDir/JOBIPH20

>>> COPY $dir/vectors/$Project.$R.3Au-6S.JobIph $WorkDir/JOBIPH21

>>> COPY $dir/vectors/$Project.$R.5Au-1S.JobIph $WorkDir/JOBIPH22

&RASSI

OMEGa
NROF=23 12 3 3 5 6 1 5 6 1 5 6 1 3 6 5 6 1 5 6 1 5 6 1
1 2 3 4 5 6 7 8 9 10 11 12
1 2 3
1 2 3
1 2 3 4 5
1 2 3 4 5 6
1
1 2 3 4 5
1 2 3 4 5 6
1
1 2 3 4 5
1 2 3 4 5 6
1
1 2 3
1 2 3 4 5 6
1 2 3 4 5
1 2 3 4 5 6
1
1 2 3 4 5
1 2 3 4 5 6
1
1 2 3 4 5
1 2 3 4 5 6
1
EJOB

-- ----------------------------------

>>> COPY /home/tecumseh/project/molecule/O2/OpenMolcas/vectors/O2.0.5500.1Ag-12S.JobIph /scratch/tecumseh/WorkSpace/O2.0.5500/JOBIPH

>>> COPY /home/tecumseh/project/molecule/O2/OpenMolcas/vectors/O2.0.5500.3Ag-3S.JobIph /scratch/tecumseh/WorkSpace/O2.0.5500/JOBIPH01

>>> COPY /home/tecumseh/project/molecule/O2/OpenMolcas/vectors/O2.0.5500.5Ag-3S.JobIph /scratch/tecumseh/WorkSpace/O2.0.5500/JOBIPH02

>>> COPY /home/tecumseh/project/molecule/O2/OpenMolcas/vectors/O2.0.5500.1B3u-5S.JobIph /scratch/tecumseh/WorkSpace/O2.0.5500/JOBIPH03

>>> COPY /home/tecumseh/project/molecule/O2/OpenMolcas/vectors/O2.0.5500.3B3u-6S.JobIph /scratch/tecumseh/WorkSpace/O2.0.5500/JOBIPH04

>>> COPY /home/tecumseh/project/molecule/O2/OpenMolcas/vectors/O2.0.5500.5B3u-1S.JobIph /scratch/tecumseh/WorkSpace/O2.0.5500/JOBIPH05

>>> COPY /home/tecumseh/project/molecule/O2/OpenMolcas/vectors/O2.0.5500.1B2u-5S.JobIph /scratch/tecumseh/WorkSpace/O2.0.5500/JOBIPH06

>>> COPY /home/tecumseh/project/molecule/O2/OpenMolcas/vectors/O2.0.5500.3B2u-6S.JobIph /scratch/tecumseh/WorkSpace/O2.0.5500/JOBIPH07

>>> COPY /home/tecumseh/project/molecule/O2/OpenMolcas/vectors/O2.0.5500.5B2u-1S.JobIph /scratch/tecumseh/WorkSpace/O2.0.5500/JOBIPH08

>>> COPY /home/tecumseh/project/molecule/O2/OpenMolcas/vectors/O2.0.5500.1B1g-5S.JobIph /scratch/tecumseh/WorkSpace/O2.0.5500/JOBIPH09

>>> COPY /home/tecumseh/project/molecule/O2/OpenMolcas/vectors/O2.0.5500.3B1g-6S.JobIph /scratch/tecumseh/WorkSpace/O2.0.5500/JOBIPH10

>>> COPY /home/tecumseh/project/molecule/O2/OpenMolcas/vectors/O2.0.5500.5B1g-1S.JobIph /scratch/tecumseh/WorkSpace/O2.0.5500/JOBIPH11

>>> COPY /home/tecumseh/project/molecule/O2/OpenMolcas/vectors/O2.0.5500.1B1u-3S.JobIph /scratch/tecumseh/WorkSpace/O2.0.5500/JOBIPH12

>>> COPY /home/tecumseh/project/molecule/O2/OpenMolcas/vectors/O2.0.5500.3B1u-6S.JobIph /scratch/tecumseh/WorkSpace/O2.0.5500/JOBIPH13

>>> COPY /home/tecumseh/project/molecule/O2/OpenMolcas/vectors/O2.0.5500.1B2g-5S.JobIph /scratch/tecumseh/WorkSpace/O2.0.5500/JOBIPH14

>>> COPY /home/tecumseh/project/molecule/O2/OpenMolcas/vectors/O2.0.5500.3B2g-6S.JobIph /scratch/tecumseh/WorkSpace/O2.0.5500/JOBIPH15

>>> COPY /home/tecumseh/project/molecule/O2/OpenMolcas/vectors/O2.0.5500.5B2g-1S.JobIph /scratch/tecumseh/WorkSpace/O2.0.5500/JOBIPH16

>>> COPY /home/tecumseh/project/molecule/O2/OpenMolcas/vectors/O2.0.5500.1B3g-5S.JobIph /scratch/tecumseh/WorkSpace/O2.0.5500/JOBIPH17

>>> COPY /home/tecumseh/project/molecule/O2/OpenMolcas/vectors/O2.0.5500.3B3g-6S.JobIph /scratch/tecumseh/WorkSpace/O2.0.5500/JOBIPH18

>>> COPY /home/tecumseh/project/molecule/O2/OpenMolcas/vectors/O2.0.5500.5B3g-1S.JobIph /scratch/tecumseh/WorkSpace/O2.0.5500/JOBIPH19

>>> COPY /home/tecumseh/project/molecule/O2/OpenMolcas/vectors/O2.0.5500.1Au-5S.JobIph /scratch/tecumseh/WorkSpace/O2.0.5500/JOBIPH20

>>> COPY /home/tecumseh/project/molecule/O2/OpenMolcas/vectors/O2.0.5500.3Au-6S.JobIph /scratch/tecumseh/WorkSpace/O2.0.5500/JOBIPH21

>>> COPY /home/tecumseh/project/molecule/O2/OpenMolcas/vectors/O2.0.5500.5Au-1S.JobIph /scratch/tecumseh/WorkSpace/O2.0.5500/JOBIPH22

--- Start Module: rassi at Thu Apr 17 10:52:06 2025 ---

()()()()()()()()()()()()()()()()()()()()()()()()()()()()()()()()()()()()()()()()()()()()()()()()()()

                                               &RASSI

                                   only a single process is used
                       available to each process: 2.0 GB of memory, 1 thread?
                                            pid: 297902
()()()()()()()()()()()()()()()()()()()()()()()()()()()()()()()()()()()()()()()()()()()()()()()()()()


      ********************************************************************************
      *                                                                              *
      *                             General data section                             *
      *                                                                              *
      ********************************************************************************

   Specific data for JOBIPH file JOBIPH
   -------------------------------------

   Header from SEWARD:
                            O2, D2h symmetry, aug-cc-pVTZ                      
        Integrals generated by Gateway/Seward, Wed Apr 16 15:36:09 2025        

   CASSCF title (first line only):
       O2, 1Ag 12S                                                             

  STATE IRREP:                1
  SPIN MULTIPLICITY:          1
  ACTIVE ELECTRONS:          12
  MAX RAS1 HOLES:             0
  MAX RAS3 ELECTRONS:         0
  NR OF CONFIG:              60

   Specific data for JOBIPH file JOBIPH01
   -------------------------------------

   Header from SEWARD:
                            O2, D2h symmetry, aug-cc-pVTZ                      
        Integrals generated by Gateway/Seward, Wed Apr 16 15:36:09 2025        

   CASSCF title (first line only):
       O2, 3Ag  3S                                                             

  STATE IRREP:                1
  SPIN MULTIPLICITY:          3
  ACTIVE ELECTRONS:          12
  MAX RAS1 HOLES:             0
  MAX RAS3 ELECTRONS:         0
  NR OF CONFIG:              42

   Specific data for JOBIPH file JOBIPH02
   -------------------------------------

   Header from SEWARD:
                            O2, D2h symmetry, aug-cc-pVTZ                      
        Integrals generated by Gateway/Seward, Wed Apr 16 15:36:09 2025        

   CASSCF title (first line only):
       O2, 5Ag  3S                                                             

  STATE IRREP:                1
  SPIN MULTIPLICITY:          5
  ACTIVE ELECTRONS:          12
  MAX RAS1 HOLES:             0
  MAX RAS3 ELECTRONS:         0
  NR OF CONFIG:              10

   Specific data for JOBIPH file JOBIPH03
   -------------------------------------

   Header from SEWARD:
                            O2, D2h symmetry, aug-cc-pVTZ                      
        Integrals generated by Gateway/Seward, Thu Apr 17 10:51:47 2025        

   CASSCF title (first line only):
       O2, 1B3u 5S                                                             

  STATE IRREP:                2
  SPIN MULTIPLICITY:          1
  ACTIVE ELECTRONS:          12
  MAX RAS1 HOLES:             0
  MAX RAS3 ELECTRONS:         0
  NR OF CONFIG:              40

   Specific data for JOBIPH file JOBIPH04
   -------------------------------------

   Header from SEWARD:
                            O2, D2h symmetry, aug-cc-pVTZ                      
        Integrals generated by Gateway/Seward, Wed Apr 16 15:36:09 2025        

   CASSCF title (first line only):
       O2, 3B3u 6S                                                             

  STATE IRREP:                2
  SPIN MULTIPLICITY:          3
  ACTIVE ELECTRONS:          12
  MAX RAS1 HOLES:             0
  MAX RAS3 ELECTRONS:         0
  NR OF CONFIG:              48

   Specific data for JOBIPH file JOBIPH05
   -------------------------------------

   Header from SEWARD:
                            O2, D2h symmetry, aug-cc-pVTZ                      
        Integrals generated by Gateway/Seward, Wed Apr 16 15:36:09 2025        

   CASSCF title (first line only):
       O2, 5B3u 1S                                                             

  STATE IRREP:                2
  SPIN MULTIPLICITY:          5
  ACTIVE ELECTRONS:          12
  MAX RAS1 HOLES:             0
  MAX RAS3 ELECTRONS:         0
  NR OF CONFIG:               8

   Specific data for JOBIPH file JOBIPH06
   -------------------------------------

   Header from SEWARD:
                            O2, D2h symmetry, aug-cc-pVTZ                      
        Integrals generated by Gateway/Seward, Thu Apr 17 10:51:47 2025        

   CASSCF title (first line only):
       O2, 1B2u 5S                                                             

  STATE IRREP:                3
  SPIN MULTIPLICITY:          1
  ACTIVE ELECTRONS:          12
  MAX RAS1 HOLES:             0
  MAX RAS3 ELECTRONS:         0
  NR OF CONFIG:              40

   Specific data for JOBIPH file JOBIPH07
   -------------------------------------

   Header from SEWARD:
                            O2, D2h symmetry, aug-cc-pVTZ                      
        Integrals generated by Gateway/Seward, Wed Apr 16 15:36:09 2025        

   CASSCF title (first line only):
       O2, 3B2u 6S                                                             

  STATE IRREP:                3
  SPIN MULTIPLICITY:          3
  ACTIVE ELECTRONS:          12
  MAX RAS1 HOLES:             0
  MAX RAS3 ELECTRONS:         0
  NR OF CONFIG:              48

   Specific data for JOBIPH file JOBIPH08
   -------------------------------------

   Header from SEWARD:
                            O2, D2h symmetry, aug-cc-pVTZ                      
        Integrals generated by Gateway/Seward, Wed Apr 16 15:36:09 2025        

   CASSCF title (first line only):
       O2, 5B2u 1S                                                             

  STATE IRREP:                3
  SPIN MULTIPLICITY:          5
  ACTIVE ELECTRONS:          12
  MAX RAS1 HOLES:             0
  MAX RAS3 ELECTRONS:         0
  NR OF CONFIG:               8

   Specific data for JOBIPH file JOBIPH09
   -------------------------------------

   Header from SEWARD:
                            O2, D2h symmetry, aug-cc-pVTZ                      
        Integrals generated by Gateway/Seward, Wed Apr 16 15:36:09 2025        

   CASSCF title (first line only):
       O2, 1B1g 5S                                                             

  STATE IRREP:                4
  SPIN MULTIPLICITY:          1
  ACTIVE ELECTRONS:          12
  MAX RAS1 HOLES:             0
  MAX RAS3 ELECTRONS:         0
  NR OF CONFIG:              36

   Specific data for JOBIPH file JOBIPH10
   -------------------------------------

   Header from SEWARD:
                            O2, D2h symmetry, aug-cc-pVTZ                      
        Integrals generated by Gateway/Seward, Wed Apr 16 15:36:09 2025        

   CASSCF title (first line only):
       O2, 3B1g 6S                                                             

  STATE IRREP:                4
  SPIN MULTIPLICITY:          3
  ACTIVE ELECTRONS:          12
  MAX RAS1 HOLES:             0
  MAX RAS3 ELECTRONS:         0
  NR OF CONFIG:              48

   Specific data for JOBIPH file JOBIPH11
   -------------------------------------

   Header from SEWARD:
                            O2, D2h symmetry, aug-cc-pVTZ                      
        Integrals generated by Gateway/Seward, Wed Apr 16 15:36:09 2025        

   CASSCF title (first line only):
       O2, 5B1g 1S                                                             

  STATE IRREP:                4
  SPIN MULTIPLICITY:          5
  ACTIVE ELECTRONS:          12
  MAX RAS1 HOLES:             0
  MAX RAS3 ELECTRONS:         0
  NR OF CONFIG:              12

   Specific data for JOBIPH file JOBIPH12
   -------------------------------------

   Header from SEWARD:
                            O2, D2h symmetry, aug-cc-pVTZ                      
        Integrals generated by Gateway/Seward, Thu Apr 17 10:51:47 2025        

   CASSCF title (first line only):
       O2, 1B1u 3S                                                             

  STATE IRREP:                5
  SPIN MULTIPLICITY:          1
  ACTIVE ELECTRONS:          12
  MAX RAS1 HOLES:             0
  MAX RAS3 ELECTRONS:         0
  NR OF CONFIG:              44

   Specific data for JOBIPH file JOBIPH13
   -------------------------------------

   Header from SEWARD:
                            O2, D2h symmetry, aug-cc-pVTZ                      
        Integrals generated by Gateway/Seward, Wed Apr 16 15:36:09 2025        

   CASSCF title (first line only):
       O2, 3B1u 6S                                                             

  STATE IRREP:                5
  SPIN MULTIPLICITY:          3
  ACTIVE ELECTRONS:          12
  MAX RAS1 HOLES:             0
  MAX RAS3 ELECTRONS:         0
  NR OF CONFIG:              48

   Specific data for JOBIPH file JOBIPH14
   -------------------------------------

   Header from SEWARD:
                            O2, D2h symmetry, aug-cc-pVTZ                      
        Integrals generated by Gateway/Seward, Wed Apr 16 15:36:09 2025        

   CASSCF title (first line only):
       O2, 1B2g 5S                                                             

  STATE IRREP:                6
  SPIN MULTIPLICITY:          1
  ACTIVE ELECTRONS:          12
  MAX RAS1 HOLES:             0
  MAX RAS3 ELECTRONS:         0
  NR OF CONFIG:              40

   Specific data for JOBIPH file JOBIPH15
   -------------------------------------

   Header from SEWARD:
                            O2, D2h symmetry, aug-cc-pVTZ                      
        Integrals generated by Gateway/Seward, Wed Apr 16 15:36:09 2025        

   CASSCF title (first line only):
       O2, 3B2g 6S                                                             

  STATE IRREP:                6
  SPIN MULTIPLICITY:          3
  ACTIVE ELECTRONS:          12
  MAX RAS1 HOLES:             0
  MAX RAS3 ELECTRONS:         0
  NR OF CONFIG:              48

   Specific data for JOBIPH file JOBIPH16
   -------------------------------------

   Header from SEWARD:
                            O2, D2h symmetry, aug-cc-pVTZ                      
        Integrals generated by Gateway/Seward, Wed Apr 16 15:36:09 2025        

   CASSCF title (first line only):
       O2, 5B2g 1S                                                             

  STATE IRREP:                6
  SPIN MULTIPLICITY:          5
  ACTIVE ELECTRONS:          12
  MAX RAS1 HOLES:             0
  MAX RAS3 ELECTRONS:         0
  NR OF CONFIG:               8

   Specific data for JOBIPH file JOBIPH17
   -------------------------------------

   Header from SEWARD:
                            O2, D2h symmetry, aug-cc-pVTZ                      
        Integrals generated by Gateway/Seward, Wed Apr 16 15:36:09 2025        

   CASSCF title (first line only):
       O2, 1B3g 5S                                                             

  STATE IRREP:                7
  SPIN MULTIPLICITY:          1
  ACTIVE ELECTRONS:          12
  MAX RAS1 HOLES:             0
  MAX RAS3 ELECTRONS:         0
  NR OF CONFIG:              40

   Specific data for JOBIPH file JOBIPH18
   -------------------------------------

   Header from SEWARD:
                            O2, D2h symmetry, aug-cc-pVTZ                      
        Integrals generated by Gateway/Seward, Wed Apr 16 15:36:09 2025        

   CASSCF title (first line only):
       O2, 3B3g 6S                                                             

  STATE IRREP:                7
  SPIN MULTIPLICITY:          3
  ACTIVE ELECTRONS:          12
  MAX RAS1 HOLES:             0
  MAX RAS3 ELECTRONS:         0
  NR OF CONFIG:              48

   Specific data for JOBIPH file JOBIPH19
   -------------------------------------

   Header from SEWARD:
                            O2, D2h symmetry, aug-cc-pVTZ                      
        Integrals generated by Gateway/Seward, Wed Apr 16 15:36:09 2025        

   CASSCF title (first line only):
       O2, 5B3g 1S                                                             

  STATE IRREP:                7
  SPIN MULTIPLICITY:          5
  ACTIVE ELECTRONS:          12
  MAX RAS1 HOLES:             0
  MAX RAS3 ELECTRONS:         0
  NR OF CONFIG:               8

   Specific data for JOBIPH file JOBIPH20
   -------------------------------------

   Header from SEWARD:
                            O2, D2h symmetry, aug-cc-pVTZ                      
        Integrals generated by Gateway/Seward, Thu Apr 17 10:51:47 2025        

   CASSCF title (first line only):
       O2, 1Au 5S                                                              

  STATE IRREP:                8
  SPIN MULTIPLICITY:          1
  ACTIVE ELECTRONS:          12
  MAX RAS1 HOLES:             0
  MAX RAS3 ELECTRONS:         0
  NR OF CONFIG:              36

   Specific data for JOBIPH file JOBIPH21
   -------------------------------------

   Header from SEWARD:
                            O2, D2h symmetry, aug-cc-pVTZ                      
        Integrals generated by Gateway/Seward, Wed Apr 16 15:36:09 2025        

   CASSCF title (first line only):
       O2, 3Au 6S                                                              

  STATE IRREP:                8
  SPIN MULTIPLICITY:          3
  ACTIVE ELECTRONS:          12
  MAX RAS1 HOLES:             0
  MAX RAS3 ELECTRONS:         0
  NR OF CONFIG:              48

   Specific data for JOBIPH file JOBIPH22
   -------------------------------------

   Header from SEWARD:
                            O2, D2h symmetry, aug-cc-pVTZ                      
        Integrals generated by Gateway/Seward, Wed Apr 16 15:36:09 2025        

   CASSCF title (first line only):
       O2, 5Au 1S                                                              

  STATE IRREP:                8
  SPIN MULTIPLICITY:          5
  ACTIVE ELECTRONS:          12
  MAX RAS1 HOLES:             0
  MAX RAS3 ELECTRONS:         0
  NR OF CONFIG:              12
 ###############################################################################
 ###############################################################################
 ###                                                                         ###
 ###                                                                         ###
 ###    WARNING: EJOB used when HEFF is available, possible                  ###
 ###    extra interaction between states is ignored!                         ###
 ###                                                                         ###
 ###                                                                         ###
 ###############################################################################
 ###############################################################################

   The following data are common to all the states:
   ------------------------------------------------
   (note: frozen counts as inactive, deleted as secondary)

      Nr of irreps: 8

                 Total     No./Irrep 
      Irrep                  1   2   3   4   5   6   7   8
                            ag b3u b2u b1g b1u b2g b3g  au

      INACTIVE       2       1   0   0   0   1   0   0   0
      ACTIVE         8       2   1   1   0   2   1   1   0
      SECONDARY     82      16  10  10   5  16  10  10   5
      BASIS         92      19  11  11   5  19  11  11   5

      RAS1           0       0   0   0   0   0   0   0   0
      RAS2           8       2   1   1   0   2   1   1   0
      RAS3           0       0   0   0   0   0   0   0   0

        MATRIX ELEMENTS WILL BE COMPUTED FOR THE FOLLOWING ONE-ELECTRON OPERATORS, UNLESS ZERO BY SYMMETRY.
   (Herm=Hermitian, Anti=Antihermitian, Sing=Singlet operator, Trip=Triplet operator)
     MLTPL  0   1 (HERMSING)     MLTPL  1   1 (HERMSING)     MLTPL  1   2 (HERMSING)
     MLTPL  1   3 (HERMSING)     MLTPL  2   1 (HERMSING)     MLTPL  2   2 (HERMSING)
     MLTPL  2   3 (HERMSING)     MLTPL  2   4 (HERMSING)     MLTPL  2   5 (HERMSING)
     MLTPL  2   6 (HERMSING)     VELOCITY   1 (ANTISING)     VELOCITY   2 (ANTISING)
     VELOCITY   3 (ANTISING)     ANGMOM     1 (ANTISING)     ANGMOM     2 (ANTISING)
     ANGMOM     3 (ANTISING)     MLTPV  2   1 (ANTISING)     MLTPV  2   2 (ANTISING)
     MLTPV  2   3 (ANTISING)     MLTPV  2   4 (ANTISING)     MLTPV  2   5 (ANTISING)
     MLTPV  2   6 (ANTISING)

       EIGENSTATES OF A SPIN-FREE HAMILTONIAN WILL BE COMPUTED BASED ON:

  a Hamiltonian matrix assumed to be diagonal with energies read from the wavefunction file(s).

  Nr of states:                   99

   State:        1   2   3   4   5   6   7   8   9  10  11  12  13  14  15  16  17  18  19  20
  JobIph:        1   1   1   1   1   1   1   1   1   1   1   1   2   2   2   3   3   3   4   4
 Root nr:        1   2   3   4   5   6   7   8   9  10  11  12   1   2   3   1   2   3   1   2

   State:       21  22  23  24  25  26  27  28  29  30  31  32  33  34  35  36  37  38  39  40
  JobIph:        4   4   4   5   5   5   5   5   5   6   7   7   7   7   7   8   8   8   8   8
 Root nr:        3   4   5   1   2   3   4   5   6   1   1   2   3   4   5   1   2   3   4   5

   State:       41  42  43  44  45  46  47  48  49  50  51  52  53  54  55  56  57  58  59  60
  JobIph:        8   9  10  10  10  10  10  11  11  11  11  11  11  12  13  13  13  14  14  14
 Root nr:        6   1   1   2   3   4   5   1   2   3   4   5   6   1   1   2   3   1   2   3

   State:       61  62  63  64  65  66  67  68  69  70  71  72  73  74  75  76  77  78  79  80
  JobIph:       14  14  14  15  15  15  15  15  16  16  16  16  16  16  17  18  18  18  18  18
 Root nr:        4   5   6   1   2   3   4   5   1   2   3   4   5   6   1   1   2   3   4   5

   State:       81  82  83  84  85  86  87  88  89  90  91  92  93  94  95  96  97  98  99
  JobIph:       19  19  19  19  19  19  20  21  21  21  21  21  22  22  22  22  22  22  23
 Root nr:        1   2   3   4   5   6   1   1   2   3   4   5   1   2   3   4   5   6   1

  HAMILTONIAN MATRIX FOR THE ORIGINAL STATES:

  Diagonal, with energies
   -149.69627760   -149.67344921   -148.90357686   -148.88616710   -148.85356412
   -148.36799630   -148.35768531   -148.28346567   -148.26487359   -148.23354191
   -148.15340818   -147.88655059   -148.43093778   -148.41038614   -148.36738351
   -148.51092561   -148.50534367   -147.78824744   -149.05072806   -148.97171429
   -148.76759849   -148.32013812   -148.26270405   -149.11531945   -149.04367568
   -148.91980267   -148.39320771   -148.35258670   -148.33755682   -148.46605143
   -149.05072806   -148.97171429   -148.76759849   -148.32013812   -148.26270405
   -149.11531945   -149.04367568   -148.91980267   -148.39320771   -148.35258670
   -148.33755682   -148.46605143   -149.69627760   -148.88616710   -148.35768531
   -148.30610101   -148.26487359   -149.73522363   -148.94716516   -148.46815894
   -148.43093778   -148.38497242   -148.36738351   -148.55038391   -149.16972740
   -149.11827761   -148.41613131   -149.42805176   -149.42218140   -148.74783923
   -148.69787562   -148.65516437   -148.06068772   -149.29348826   -148.71781007
   -148.66001585   -148.65015652   -148.57254497   -149.34251662   -148.77408940
   -148.72657183   -148.71980145   -148.70544638   -148.63642673   -148.85112908
   -149.29348826   -148.71781007   -148.66001585   -148.65015652   -148.57254497
   -149.34251662   -148.77408940   -148.72657183   -148.71980145   -148.70544638
   -148.63642673   -148.85112908   -149.43757439   -149.16972740   -148.60806657
   -148.40323128   -148.06501678   -149.42805176   -149.25821321   -148.69787562
   -148.67023306   -148.43867948   -148.13199010   -148.79793628

      OVERLAP MATRIX FOR THE ORIGINAL STATES:

  Diagonal, with elements
      1.00000000      1.00000000      1.00000000      1.00000000      1.00000000
      1.00000000      1.00000000      1.00000000      1.00000000      1.00000000
      1.00000000      1.00000000      1.00000000      1.00000000      1.00000000
      1.00000000      1.00000000      1.00000000      1.00000000      1.00000000
      1.00000000      1.00000000      1.00000000      1.00000000      1.00000000
      1.00000000      1.00000000      1.00000000      1.00000000      1.00000000
      1.00000000      1.00000000      1.00000000      1.00000000      1.00000000
      1.00000000      1.00000000      1.00000000      1.00000000      1.00000000
      1.00000000      1.00000000      1.00000000      1.00000000      1.00000000
      1.00000000      1.00000000      1.00000000      1.00000000      1.00000000
      1.00000000      1.00000000      1.00000000      1.00000000      1.00000000
      1.00000000      1.00000000      1.00000000      1.00000000      1.00000000
      1.00000000      1.00000000      1.00000000      1.00000000      1.00000000
      1.00000000      1.00000000      1.00000000      1.00000000      1.00000000
      1.00000000      1.00000000      1.00000000      1.00000000      1.00000000
      1.00000000      1.00000000      1.00000000      1.00000000      1.00000000
      1.00000000      1.00000000      1.00000000      1.00000000      1.00000000
      1.00000000      1.00000000      1.00000000      1.00000000      1.00000000
      1.00000000      1.00000000      1.00000000      1.00000000      1.00000000
      1.00000000      1.00000000      1.00000000      1.00000000

::    RASSI State    1     Total energy:    -149.69627759857289
::    RASSI State    2     Total energy:    -149.67344920909167
::    RASSI State    3     Total energy:    -148.90357685896794
::    RASSI State    4     Total energy:    -148.88616709726364
::    RASSI State    5     Total energy:    -148.85356411619279
::    RASSI State    6     Total energy:    -148.36799630157631
::    RASSI State    7     Total energy:    -148.35768531303006
::    RASSI State    8     Total energy:    -148.28346566606410
::    RASSI State    9     Total energy:    -148.26487359336707
::    RASSI State   10     Total energy:    -148.23354190843702
::    RASSI State   11     Total energy:    -148.15340817913741
::    RASSI State   12     Total energy:    -147.88655059051359
::    RASSI State   13     Total energy:    -148.43093778109775
::    RASSI State   14     Total energy:    -148.41038614113214
::    RASSI State   15     Total energy:    -148.36738351156706
::    RASSI State   16     Total energy:    -148.51092561198388
::    RASSI State   17     Total energy:    -148.50534366986315
::    RASSI State   18     Total energy:    -147.78824744108539
::    RASSI State   19     Total energy:    -149.05072805520513
::    RASSI State   20     Total energy:    -148.97171429057613
::    RASSI State   21     Total energy:    -148.76759849176236
::    RASSI State   22     Total energy:    -148.32013812403682
::    RASSI State   23     Total energy:    -148.26270404544820
::    RASSI State   24     Total energy:    -149.11531944724044
::    RASSI State   25     Total energy:    -149.04367568142948
::    RASSI State   26     Total energy:    -148.91980267396670
::    RASSI State   27     Total energy:    -148.39320770793904
::    RASSI State   28     Total energy:    -148.35258669835676
::    RASSI State   29     Total energy:    -148.33755681916645
::    RASSI State   30     Total energy:    -148.46605143254885
::    RASSI State   31     Total energy:    -149.05072805520530
::    RASSI State   32     Total energy:    -148.97171429057624
::    RASSI State   33     Total energy:    -148.76759849176244
::    RASSI State   34     Total energy:    -148.32013812403676
::    RASSI State   35     Total energy:    -148.26270404544812
::    RASSI State   36     Total energy:    -149.11531944724044
::    RASSI State   37     Total energy:    -149.04367568142936
::    RASSI State   38     Total energy:    -148.91980267396664
::    RASSI State   39     Total energy:    -148.39320770793921
::    RASSI State   40     Total energy:    -148.35258669835684
::    RASSI State   41     Total energy:    -148.33755681916628
::    RASSI State   42     Total energy:    -148.46605143254894
::    RASSI State   43     Total energy:    -149.69627759857295
::    RASSI State   44     Total energy:    -148.88616709726369
::    RASSI State   45     Total energy:    -148.35768531303006
::    RASSI State   46     Total energy:    -148.30610101303378
::    RASSI State   47     Total energy:    -148.26487359336707
::    RASSI State   48     Total energy:    -149.73522362644053
::    RASSI State   49     Total energy:    -148.94716516438146
::    RASSI State   50     Total energy:    -148.46815894436483
::    RASSI State   51     Total energy:    -148.43093778109781
::    RASSI State   52     Total energy:    -148.38497242207691
::    RASSI State   53     Total energy:    -148.36738351156703
::    RASSI State   54     Total energy:    -148.55038390785907
::    RASSI State   55     Total energy:    -149.16972740424993
::    RASSI State   56     Total energy:    -149.11827760633204
::    RASSI State   57     Total energy:    -148.41613130790432
::    RASSI State   58     Total energy:    -149.42805175718391
::    RASSI State   59     Total energy:    -149.42218139623114
::    RASSI State   60     Total energy:    -148.74783922664926
::    RASSI State   61     Total energy:    -148.69787561503750
::    RASSI State   62     Total energy:    -148.65516436785018
::    RASSI State   63     Total energy:    -148.06068771582835
::    RASSI State   64     Total energy:    -149.29348825824391
::    RASSI State   65     Total energy:    -148.71781006610655
::    RASSI State   66     Total energy:    -148.66001584734644
::    RASSI State   67     Total energy:    -148.65015651526932
::    RASSI State   68     Total energy:    -148.57254496784378
::    RASSI State   69     Total energy:    -149.34251662217503
::    RASSI State   70     Total energy:    -148.77408939528786
::    RASSI State   71     Total energy:    -148.72657182953483
::    RASSI State   72     Total energy:    -148.71980145177466
::    RASSI State   73     Total energy:    -148.70544638388495
::    RASSI State   74     Total energy:    -148.63642672947557
::    RASSI State   75     Total energy:    -148.85112908192798
::    RASSI State   76     Total energy:    -149.29348825824391
::    RASSI State   77     Total energy:    -148.71781006610655
::    RASSI State   78     Total energy:    -148.66001584734633
::    RASSI State   79     Total energy:    -148.65015651526932
::    RASSI State   80     Total energy:    -148.57254496784390
::    RASSI State   81     Total energy:    -149.34251662217511
::    RASSI State   82     Total energy:    -148.77408939528794
::    RASSI State   83     Total energy:    -148.72657182953478
::    RASSI State   84     Total energy:    -148.71980145177443
::    RASSI State   85     Total energy:    -148.70544638388500
::    RASSI State   86     Total energy:    -148.63642672947540
::    RASSI State   87     Total energy:    -148.85112908192806
::    RASSI State   88     Total energy:    -149.43757438590350
::    RASSI State   89     Total energy:    -149.16972740425001
::    RASSI State   90     Total energy:    -148.60806656820685
::    RASSI State   91     Total energy:    -148.40323127747342
::    RASSI State   92     Total energy:    -148.06501678453242
::    RASSI State   93     Total energy:    -149.42805175718399
::    RASSI State   94     Total energy:    -149.25821320675183
::    RASSI State   95     Total energy:    -148.69787561503750
::    RASSI State   96     Total energy:    -148.67023306088134
::    RASSI State   97     Total energy:    -148.43867948204334
::    RASSI State   98     Total energy:    -148.13199010382891
::    RASSI State   99     Total energy:    -148.79793627793649



      ****************************************************************************************************
      *                                                                                                  *
      *                                         Spin-free section                                        *
      *                                                                                                  *
      *                 Note: index according to input order, order according to energy.                 *
      *                                                                                                  *
      ****************************************************************************************************



  SPIN-FREE ENERGIES:
  (Shifted by EMIN (a.u.) =       -149.7352236264)

 SF State       Relative EMIN(au)   Rel lowest level(eV)    D:o, cm**(-1)      L_eff   Abs_M

    48             0.0000000000        0.0000000000              0.0000         1.4     0.0
    43             0.0389460279        1.0597754071           8547.6651         2.3     2.0
     1             0.0389460279        1.0597754071           8547.6651         2.3     2.0
     2             0.0617744173        1.6809675306          13557.9175         1.5     0.0
    88             0.2976492405        8.0994484501          65326.4573         1.1     0.0
    93             0.3071718693        8.3585723782          67416.4328         2.1     2.0
    58             0.3071718693        8.3585723782          67416.4328         2.1     2.0
    59             0.3130422302        8.5183130375          68704.8281         1.1     0.0
    81             0.3927070043       10.6861019746          86189.2250         1.2     1.0
    69             0.3927070043       10.6861019746          86189.2250         1.2     1.0
    64             0.4417353682       12.0202317225          96949.7071         2.4     1.0
    76             0.4417353682       12.0202317225          96949.7071         2.4     1.0
    94             0.4770104197       12.9801147735         104691.6860         1.3     0.0
    89             0.5654962222       15.3879361227         124112.0749         2.1     2.0
    55             0.5654962222       15.3879361227         124112.0749         2.1     2.0
    56             0.6169460201       16.7879564461         135404.0003         1.1     0.0
    24             0.6199041792       16.8684520557         136053.2412         1.9     1.0
    36             0.6199041792       16.8684520557         136053.2412         1.9     1.0
    31             0.6844955712       18.6260733725         150229.4132         1.1     1.0
    19             0.6844955712       18.6260733725         150229.4132         1.1     1.0
    25             0.6915479450       18.8179782393         151777.2303         1.8     1.0
    37             0.6915479450       18.8179782393         151777.2303         1.8     1.0
    32             0.7635093359       20.7761474406         167570.9300         1.5     1.0
    20             0.7635093359       20.7761474406         167570.9300         1.5     1.0
    49             0.7880584621       21.4441631955         172958.8405         0.8     0.0
    26             0.8154209525       22.1887344908         178964.2129         1.3     1.0
    38             0.8154209525       22.1887344908         178964.2129         1.3     1.0
     3             0.8316467675       22.6302614099         182525.3677         1.8     0.0
    44             0.8490565292       23.1040051601         186346.3687         1.9     2.0
     4             0.8490565292       23.1040051601         186346.3687         1.9     2.0
     5             0.8816595102       23.9911774708         193501.8960         1.0     0.0
    87             0.8840945445       24.0574381287         194036.3242         1.5     1.0
    75             0.8840945445       24.0574381287         194036.3242         1.5     1.0
    99             0.9372873485       25.5048880636         205710.7953         0.0     0.0
    82             0.9611342312       26.1537947981         210944.5811         1.4     1.0
    70             0.9611342312       26.1537947981         210944.5811         1.4     1.0
    33             0.9676251347       26.3304212810         212369.1697         1.8     1.0
    21             0.9676251347       26.3304212810         212369.1697         1.8     1.0
    60             0.9873843998       26.8680982760         216705.8272         1.4     0.0
    71             1.0086517969       27.4468136333         221373.4813         2.9     3.0
    83             1.0086517969       27.4468136333         221373.4813         2.9     3.0
    72             1.0154221747       27.6310449976         222859.4075         0.9     1.0
    84             1.0154221747       27.6310449976         222859.4075         0.9     1.0
    65             1.0174135603       27.6852333621         223296.4661         1.4     1.0
    77             1.0174135603       27.6852333621         223296.4661         1.4     1.0
    85             1.0297772426       28.0216662945         226009.9807         1.3     1.0
    73             1.0297772426       28.0216662945         226009.9807         1.3     1.0
    61             1.0373480114       28.2276774098         227671.5724         1.9     2.0
    95             1.0373480114       28.2276774098         227671.5724         1.9     2.0
    96             1.0649905656       28.9798696278         233738.4118         1.3     0.0
    66             1.0752077791       29.2578941716         235980.8310         1.9     1.0
    78             1.0752077791       29.2578941716         235980.8310         1.9     1.0
    62             1.0800592586       29.3899096540         237045.6076         1.0     0.0
    67             1.0850671112       29.5261802649         238144.7042         3.1     3.0
    79             1.0850671112       29.5261802649         238144.7042         3.1     3.0
    74             1.0987968970       29.8997867692         241158.0439         0.9     1.0
    86             1.0987968970       29.8997867692         241158.0439         0.9     1.0
    90             1.1271570582       30.6715060715         247382.3798         1.6     0.0
    80             1.1626786586       31.6380980590         255178.4700         1.4     1.0
    68             1.1626786586       31.6380980590         255178.4700         1.4     1.0
    54             1.1848397186       32.2411312219         260042.2605         1.1     0.0
    16             1.2242980145       33.3148461516         268702.3554         0.8     0.0
    17             1.2298799566       33.4667385346         269927.4501         0.8     0.0
    50             1.2670646821       34.4785864626         278088.5540         0.8     0.0
    42             1.2691721939       34.5359347806         278551.0994         0.6     1.0
    30             1.2691721939       34.5359347806         278551.0994         0.6     1.0
    97             1.2965441444       35.2807634982         284558.5481         0.6     0.0
    51             1.3042858453       35.4914259128         286257.6551         1.8     2.0
    13             1.3042858453       35.4914259128         286257.6551         1.8     2.0
    57             1.3190923185       35.8943305738         289507.3003         1.2     0.0
    14             1.3248374853       36.0506645259         290768.2187         0.8     0.0
    91             1.3319923490       36.2453582844         292338.5298         0.7     0.0
    39             1.3420159185       36.5181135066         294538.4490         1.0     1.0
    27             1.3420159185       36.5181135066         294538.4490         1.0     1.0
    52             1.3502512044       36.7422070510         296345.8853         1.1     0.0
     6             1.3672273249       37.2041508229         300071.7131         0.8     0.0
    15             1.3678401149       37.2208256886         300206.2050         2.3     2.0
    53             1.3678401149       37.2208256886         300206.2050         2.3     2.0
    45             1.3775383134       37.4847271148         302334.7135         2.0     2.0
     7             1.3775383134       37.4847271148         302334.7135         2.0     2.0
    40             1.3826369281       37.6234674880         303453.7301         2.6     3.0
    28             1.3826369281       37.6234674880         303453.7301         2.6     3.0
    29             1.3976668073       38.0324513359         306752.4073         1.0     1.0
    41             1.3976668073       38.0324513359         306752.4073         1.0     1.0
    22             1.4150855024       38.5064381770         310575.3690         1.1     1.0
    34             1.4150855024       38.5064381770         310575.3690         1.1     1.0
    46             1.4291226134       38.8884074263         313656.1588         0.4     0.0
     8             1.4517579604       39.5043465955         318624.0432         1.6     0.0
     9             1.4703500331       40.0102626668         322704.5315         2.3     2.0
    47             1.4703500331       40.0102626668         322704.5315         2.3     2.0
    23             1.4725195810       40.0692990732         323180.6922         2.6     3.0
    35             1.4725195810       40.0692990732         323180.6922         2.6     3.0
    10             1.5016817180       40.8628412471         329581.0415         0.8     0.0
    11             1.5818154473       43.0433911064         347168.3622         0.4     0.0
    98             1.6032335226       43.6262066263         351869.0864         0.9     0.0
    92             1.6702068419       45.4486434858         366568.0309         0.9     0.0
    63             1.6745359106       45.5664434464         367518.1517         0.7     0.0
    12             1.8486730359       50.3049560231         405736.8331         0.3     0.0
    18             1.9469761854       52.9799209914         427311.8806         0.4     0.0

++ Dipole transition strengths (spin-free states):
   -----------------------------------------------
     for osc. strength at least  1.00000000E-05

      From   To        Osc. strength     Einstein coefficients Ax, Ay, Az (sec-1)    Total A (sec-1)
     -----------------------------------------------------------------------------------------------
        48   94       2.32800004E-01  0.00000000E+00  0.00000000E+00  1.70196098E+09  1.70196098E+09
        48   24       9.80318371E-02  0.00000000E+00  1.21039509E+09  0.00000000E+00  1.21039509E+09
        48   36       9.80318371E-02  1.21039509E+09  0.00000000E+00  0.00000000E+00  1.21039509E+09
        48   25       5.02508764E-02  0.00000000E+00  7.72145445E+08  0.00000000E+00  7.72145445E+08
        48   37       5.02508764E-02  7.72145445E+08  0.00000000E+00  0.00000000E+00  7.72145445E+08
        48   26       3.26878059E-02  0.00000000E+00  6.98329496E+08  0.00000000E+00  6.98329496E+08
        48   38       3.26878059E-02  6.98329496E+08  0.00000000E+00  0.00000000E+00  6.98329496E+08
        48   96       9.38031546E-03  0.00000000E+00  0.00000000E+00  3.41837614E+08  3.41837614E+08
        48   97       1.08250786E+00  0.00000000E+00  0.00000000E+00  5.84677736E+10  5.84677736E+10
        48   39       2.21554185E-04  1.28205358E+07  0.00000000E+00  0.00000000E+00  1.28205358E+07
        48   27       2.21554185E-04  0.00000000E+00  1.28205358E+07  0.00000000E+00  1.28205358E+07
        48   29       1.08447688E-03  0.00000000E+00  6.80672937E+07  0.00000000E+00  6.80672937E+07
        48   41       1.08447688E-03  6.80672937E+07  0.00000000E+00  0.00000000E+00  6.80672937E+07
        48   98       4.59018930E-02  0.00000000E+00  0.00000000E+00  3.79083647E+09  3.79083647E+09
        43   89       2.20091566E-01  0.00000000E+00  0.00000000E+00  1.96062185E+09  1.96062185E+09
        43   31       7.91540854E-02  1.05984749E+09  0.00000000E+00  0.00000000E+00  1.05984749E+09
        43   19       7.91540854E-02  0.00000000E+00  1.05984749E+09  0.00000000E+00  1.05984749E+09
        43   32       3.60283059E-02  6.07725417E+08  0.00000000E+00  0.00000000E+00  6.07725417E+08
        43   20       3.60283059E-02  0.00000000E+00  6.07725417E+08  0.00000000E+00  6.07725417E+08
        43   33       1.02055752E-01  2.82800206E+09  0.00000000E+00  0.00000000E+00  2.82800206E+09
        43   21       1.02055752E-01  0.00000000E+00  2.82800206E+09  0.00000000E+00  2.82800206E+09
        43   91       1.08333937E+00  0.00000000E+00  0.00000000E+00  5.81973992E+10  5.81973992E+10
        43   23       2.73387323E-04  0.00000000E+00  1.80521617E+07  0.00000000E+00  1.80521617E+07
        43   35       2.73387323E-04  1.80521617E+07  0.00000000E+00  0.00000000E+00  1.80521617E+07
         1   55       2.20091566E-01  0.00000000E+00  0.00000000E+00  1.96062185E+09  1.96062185E+09
         1   31       7.91540854E-02  0.00000000E+00  1.05984749E+09  0.00000000E+00  1.05984749E+09
         1   19       7.91540854E-02  1.05984749E+09  0.00000000E+00  0.00000000E+00  1.05984749E+09
         1   32       3.60283059E-02  0.00000000E+00  6.07725417E+08  0.00000000E+00  6.07725417E+08
         1   20       3.60283059E-02  6.07725417E+08  0.00000000E+00  0.00000000E+00  6.07725417E+08
         1   33       1.02055752E-01  0.00000000E+00  2.82800206E+09  0.00000000E+00  2.82800206E+09
         1   21       1.02055752E-01  2.82800206E+09  0.00000000E+00  0.00000000E+00  2.82800206E+09
         1   23       2.73387323E-04  1.80521617E+07  0.00000000E+00  0.00000000E+00  1.80521617E+07
         1   35       2.73387323E-04  0.00000000E+00  1.80521617E+07  0.00000000E+00  1.80521617E+07
         2   56       2.19543872E-01  0.00000000E+00  0.00000000E+00  2.17413591E+09  2.17413591E+09
         2   31       1.05244375E-01  0.00000000E+00  1.31128477E+09  0.00000000E+00  1.31128477E+09
         2   19       1.05244375E-01  1.31128477E+09  0.00000000E+00  0.00000000E+00  1.31128477E+09
         2   32       2.20004075E-03  0.00000000E+00  3.48086984E+07  0.00000000E+00  3.48086984E+07
         2   20       2.20004075E-03  3.48086984E+07  0.00000000E+00  0.00000000E+00  3.48086984E+07
         2   33       5.73835826E-02  0.00000000E+00  1.51290552E+09  0.00000000E+00  1.51290552E+09
         2   21       5.73835826E-02  1.51290552E+09  0.00000000E+00  0.00000000E+00  1.51290552E+09
         2   57       5.44306213E-01  0.00000000E+00  0.00000000E+00  2.76467683E+10  2.76467683E+10
         2   22       6.24375338E-04  3.67410787E+07  0.00000000E+00  0.00000000E+00  3.67410787E+07
         2   34       6.24375338E-04  0.00000000E+00  3.67410787E+07  0.00000000E+00  3.67410787E+07
        88   64       6.67426223E-03  0.00000000E+00  4.45203416E+06  0.00000000E+00  4.45203416E+06
        88   76       6.67426223E-03  4.45203416E+06  0.00000000E+00  0.00000000E+00  4.45203416E+06
        88   65       2.92210219E-04  0.00000000E+00  4.86392546E+06  0.00000000E+00  4.86392546E+06
        88   77       2.92210219E-04  4.86392546E+06  0.00000000E+00  0.00000000E+00  4.86392546E+06
        88   66       1.03458044E-01  0.00000000E+00  2.00974675E+09  0.00000000E+00  2.00974675E+09
        88   78       1.03458044E-01  2.00974675E+09  0.00000000E+00  0.00000000E+00  2.00974675E+09
        88   80       7.98077783E-02  1.91874764E+09  0.00000000E+00  0.00000000E+00  1.91874764E+09
        88   68       7.98077783E-02  0.00000000E+00  1.91874764E+09  0.00000000E+00  1.91874764E+09
        88   46       6.10260598E-02  0.00000000E+00  0.00000000E+00  2.51023794E+09  2.51023794E+09
        93   81       3.21459380E-03  7.55659378E+05  0.00000000E+00  0.00000000E+00  7.55659378E+05
        93   69       3.21459380E-03  0.00000000E+00  7.55659378E+05  0.00000000E+00  7.55659378E+05
        93   82       1.92642563E-05  2.64708957E+05  0.00000000E+00  0.00000000E+00  2.64708957E+05
        93   70       1.92642563E-05  0.00000000E+00  2.64708957E+05  0.00000000E+00  2.64708957E+05
        93   71       4.35641252E-03  0.00000000E+00  6.88763902E+07  0.00000000E+00  6.88763902E+07
        93   83       4.35641252E-03  6.88763902E+07  0.00000000E+00  0.00000000E+00  6.88763902E+07
        93   72       2.01091316E-02  0.00000000E+00  3.24099036E+08  0.00000000E+00  3.24099036E+08
        93   84       2.01091316E-02  3.24099036E+08  0.00000000E+00  0.00000000E+00  3.24099036E+08
        93   85       1.89431719E-02  3.17808828E+08  0.00000000E+00  0.00000000E+00  3.17808828E+08
        93   73       1.89431719E-02  0.00000000E+00  3.17808828E+08  0.00000000E+00  3.17808828E+08
        93   74       6.22195446E-02  0.00000000E+00  1.25278557E+09  0.00000000E+00  1.25278557E+09
        93   86       6.22195446E-02  1.25278557E+09  0.00000000E+00  0.00000000E+00  1.25278557E+09
        93   51       1.33565375E-02  0.00000000E+00  0.00000000E+00  4.26672231E+08  4.26672231E+08
        58   81       3.21459380E-03  0.00000000E+00  7.55659378E+05  0.00000000E+00  7.55659378E+05
        58   69       3.21459380E-03  7.55659378E+05  0.00000000E+00  0.00000000E+00  7.55659378E+05
        58   82       1.92642563E-05  0.00000000E+00  2.64708957E+05  0.00000000E+00  2.64708957E+05
        58   70       1.92642563E-05  2.64708957E+05  0.00000000E+00  0.00000000E+00  2.64708957E+05
        58   71       4.35641252E-03  6.88763902E+07  0.00000000E+00  0.00000000E+00  6.88763902E+07
        58   83       4.35641252E-03  0.00000000E+00  6.88763902E+07  0.00000000E+00  6.88763902E+07
        58   72       2.01091316E-02  3.24099036E+08  0.00000000E+00  0.00000000E+00  3.24099036E+08
        58   84       2.01091316E-02  0.00000000E+00  3.24099036E+08  0.00000000E+00  3.24099036E+08
        58   85       1.89431719E-02  0.00000000E+00  3.17808828E+08  0.00000000E+00  3.17808828E+08
        58   73       1.89431719E-02  3.17808828E+08  0.00000000E+00  0.00000000E+00  3.17808828E+08
        58   74       6.22195446E-02  1.25278557E+09  0.00000000E+00  0.00000000E+00  1.25278557E+09
        58   86       6.22195446E-02  0.00000000E+00  1.25278557E+09  0.00000000E+00  1.25278557E+09
        58   13       1.33565375E-02  0.00000000E+00  0.00000000E+00  4.26672231E+08  4.26672231E+08
        59   81       3.00770003E-03  0.00000000E+00  6.13307196E+05  0.00000000E+00  6.13307196E+05
        59   69       3.00770003E-03  6.13307196E+05  0.00000000E+00  0.00000000E+00  6.13307196E+05
        59   82       1.00450693E-02  0.00000000E+00  1.35561742E+08  0.00000000E+00  1.35561742E+08
        59   70       1.00450693E-02  1.35561742E+08  0.00000000E+00  0.00000000E+00  1.35561742E+08
        59   72       2.46011648E-02  3.89951647E+08  0.00000000E+00  0.00000000E+00  3.89951647E+08
        59   84       2.46011648E-02  0.00000000E+00  3.89951647E+08  0.00000000E+00  3.89951647E+08
        59   85       5.22979166E-03  0.00000000E+00  8.63202147E+07  0.00000000E+00  8.63202147E+07
        59   73       5.22979166E-03  8.63202147E+07  0.00000000E+00  0.00000000E+00  8.63202147E+07
        59   74       6.44127471E-02  1.27778164E+09  0.00000000E+00  0.00000000E+00  1.27778164E+09
        59   86       6.44127471E-02  0.00000000E+00  1.27778164E+09  0.00000000E+00  1.27778164E+09
        59   14       1.52177136E-02  0.00000000E+00  0.00000000E+00  5.00547810E+08  5.00547810E+08
        81   94       6.72969259E-04  1.53672603E+05  0.00000000E+00  0.00000000E+00  1.53672603E+05
        81   36       5.41663506E-02  0.00000000E+00  0.00000000E+00  8.98351533E+07  8.98351533E+07
        81   37       3.48988146E-03  0.00000000E+00  0.00000000E+00  1.00138654E+07  1.00138654E+07
        81   38       2.98550336E-01  0.00000000E+00  0.00000000E+00  1.71404257E+09  1.71404257E+09
        81   60       1.12223621E-01  0.00000000E+00  1.27514045E+09  0.00000000E+00  1.27514045E+09
        81   61       5.42137656E-03  0.00000000E+00  7.23862893E+07  0.00000000E+00  7.23862893E+07
        81   95       5.42137656E-03  7.23862893E+07  0.00000000E+00  0.00000000E+00  7.23862893E+07
        81   96       1.49149044E-02  2.16588973E+08  0.00000000E+00  0.00000000E+00  2.16588973E+08
        81   62       7.40516599E-02  0.00000000E+00  1.12409859E+09  0.00000000E+00  1.12409859E+09
        81   97       9.23350094E-03  2.42358160E+08  0.00000000E+00  0.00000000E+00  2.42358160E+08
        81   39       8.50870566E-04  0.00000000E+00  0.00000000E+00  2.46370952E+07  2.46370952E+07
        81   41       4.98446016E-04  0.00000000E+00  0.00000000E+00  1.61743335E+07  1.61743335E+07
        81   98       1.34776908E-05  6.34563351E+05  0.00000000E+00  0.00000000E+00  6.34563351E+05
        69   94       6.72969259E-04  0.00000000E+00  1.53672603E+05  0.00000000E+00  1.53672603E+05
        69   24       5.41663506E-02  0.00000000E+00  0.00000000E+00  8.98351533E+07  8.98351533E+07
        69   25       3.48988146E-03  0.00000000E+00  0.00000000E+00  1.00138654E+07  1.00138654E+07
        69   26       2.98550336E-01  0.00000000E+00  0.00000000E+00  1.71404257E+09  1.71404257E+09
        69   60       1.12223621E-01  1.27514045E+09  0.00000000E+00  0.00000000E+00  1.27514045E+09
        69   61       5.42137656E-03  7.23862893E+07  0.00000000E+00  0.00000000E+00  7.23862893E+07
        69   95       5.42137656E-03  0.00000000E+00  7.23862893E+07  0.00000000E+00  7.23862893E+07
        69   96       1.49149044E-02  0.00000000E+00  2.16588973E+08  0.00000000E+00  2.16588973E+08
        69   62       7.40516599E-02  1.12409859E+09  0.00000000E+00  0.00000000E+00  1.12409859E+09
        69   97       9.23350094E-03  0.00000000E+00  2.42358160E+08  0.00000000E+00  2.42358160E+08
        69   27       8.50870566E-04  0.00000000E+00  0.00000000E+00  2.46370952E+07  2.46370952E+07
        69   29       4.98446016E-04  0.00000000E+00  0.00000000E+00  1.61743335E+07  1.61743335E+07
        69   98       1.34776908E-05  0.00000000E+00  6.34563351E+05  0.00000000E+00  6.34563351E+05
        64   89       4.17541853E-04  0.00000000E+00  2.05483755E+05  0.00000000E+00  2.05483755E+05
        64   55       4.17541853E-04  2.05483755E+05  0.00000000E+00  0.00000000E+00  2.05483755E+05
        64   56       1.24828025E-04  1.23124362E+05  0.00000000E+00  0.00000000E+00  1.23124362E+05
        64   19       1.02453660E-02  0.00000000E+00  0.00000000E+00  1.93996254E+07  1.93996254E+07
        64   20       3.37538334E-04  0.00000000E+00  0.00000000E+00  1.12288634E+06  1.12288634E+06
        64   21       4.12931981E-01  0.00000000E+00  0.00000000E+00  3.66926301E+09  3.66926301E+09
        64   90       2.36318348E-02  0.00000000E+00  3.56717169E+08  0.00000000E+00  3.56717169E+08
        64   57       7.90037394E-02  1.95393977E+09  0.00000000E+00  0.00000000E+00  1.95393977E+09
        64   91       6.39467433E-03  0.00000000E+00  1.62839624E+08  0.00000000E+00  1.62839624E+08
        64   22       7.99236541E-04  0.00000000E+00  0.00000000E+00  2.43290080E+07  2.43290080E+07
        76   89       4.17541853E-04  2.05483755E+05  0.00000000E+00  0.00000000E+00  2.05483755E+05
        76   55       4.17541853E-04  0.00000000E+00  2.05483755E+05  0.00000000E+00  2.05483755E+05
        76   56       1.24828025E-04  0.00000000E+00  1.23124362E+05  0.00000000E+00  1.23124362E+05
        76   31       1.02453660E-02  0.00000000E+00  0.00000000E+00  1.93996254E+07  1.93996254E+07
        76   32       3.37538334E-04  0.00000000E+00  0.00000000E+00  1.12288634E+06  1.12288634E+06
        76   33       4.12931981E-01  0.00000000E+00  0.00000000E+00  3.66926301E+09  3.66926301E+09
        76   90       2.36318348E-02  3.56717169E+08  0.00000000E+00  0.00000000E+00  3.56717169E+08
        76   57       7.90037394E-02  0.00000000E+00  1.95393977E+09  0.00000000E+00  1.95393977E+09
        76   91       6.39467433E-03  1.62839624E+08  0.00000000E+00  0.00000000E+00  1.62839624E+08
        76   34       7.99236541E-04  0.00000000E+00  0.00000000E+00  2.43290080E+07  2.43290080E+07
        94   49       2.64569873E-01  0.00000000E+00  0.00000000E+00  8.22443773E+08  8.22443773E+08
        94   72       1.17549728E-02  0.00000000E+00  1.09486754E+08  0.00000000E+00  1.09486754E+08
        94   84       1.17549728E-02  1.09486754E+08  0.00000000E+00  0.00000000E+00  1.09486754E+08
        94   85       6.38688815E-05  6.27023952E+05  0.00000000E+00  0.00000000E+00  6.27023952E+05
        94   73       6.38688815E-05  0.00000000E+00  6.27023952E+05  0.00000000E+00  6.27023952E+05
        94   74       7.62677525E-02  0.00000000E+00  9.47402174E+08  0.00000000E+00  9.47402174E+08
        94   86       7.62677525E-02  9.47402174E+08  0.00000000E+00  0.00000000E+00  9.47402174E+08
        94   50       5.78229179E-04  0.00000000E+00  0.00000000E+00  1.15964411E+07  1.15964411E+07
        94   52       1.64210069E-02  0.00000000E+00  0.00000000E+00  4.02326545E+08  4.02326545E+08
        89   44       2.60041624E-01  0.00000000E+00  0.00000000E+00  6.71807161E+08  6.71807161E+08
        89   65       1.99120284E-03  0.00000000E+00  1.30660523E+07  0.00000000E+00  1.30660523E+07
        89   77       1.99120284E-03  1.30660523E+07  0.00000000E+00  0.00000000E+00  1.30660523E+07
        89   66       4.52883074E-03  0.00000000E+00  3.78047120E+07  0.00000000E+00  3.78047120E+07
        89   78       4.52883074E-03  3.78047120E+07  0.00000000E+00  0.00000000E+00  3.78047120E+07
        89   67       2.55799261E-03  0.00000000E+00  2.21870615E+07  0.00000000E+00  2.21870615E+07
        89   79       2.55799261E-03  2.21870615E+07  0.00000000E+00  0.00000000E+00  2.21870615E+07
        89   80       1.14682753E-02  1.31408376E+08  0.00000000E+00  0.00000000E+00  1.31408376E+08
        89   68       1.14682753E-02  0.00000000E+00  1.31408376E+08  0.00000000E+00  1.31408376E+08
        89   45       1.76604318E-02  0.00000000E+00  0.00000000E+00  3.74170275E+08  3.74170275E+08
        89   47       9.50959442E-02  0.00000000E+00  0.00000000E+00  2.50166826E+09  2.50166826E+09
        55    4       2.60041624E-01  0.00000000E+00  0.00000000E+00  6.71807161E+08  6.71807161E+08
        55   65       1.99120284E-03  1.30660523E+07  0.00000000E+00  0.00000000E+00  1.30660523E+07
        55   77       1.99120284E-03  0.00000000E+00  1.30660523E+07  0.00000000E+00  1.30660523E+07
        55   66       4.52883074E-03  3.78047120E+07  0.00000000E+00  0.00000000E+00  3.78047120E+07
        55   78       4.52883074E-03  0.00000000E+00  3.78047120E+07  0.00000000E+00  3.78047120E+07
        55   67       2.55799261E-03  2.21870615E+07  0.00000000E+00  0.00000000E+00  2.21870615E+07
        55   79       2.55799261E-03  0.00000000E+00  2.21870615E+07  0.00000000E+00  2.21870615E+07
        55   80       1.14682753E-02  0.00000000E+00  1.31408376E+08  0.00000000E+00  1.31408376E+08
        55   68       1.14682753E-02  1.31408376E+08  0.00000000E+00  0.00000000E+00  1.31408376E+08
        55    7       1.76604318E-02  0.00000000E+00  0.00000000E+00  3.74170275E+08  3.74170275E+08
        55    9       9.50959442E-02  0.00000000E+00  0.00000000E+00  2.50166826E+09  2.50166826E+09
        55   12       7.13342557E-01  0.00000000E+00  0.00000000E+00  3.77382732E+10  3.77382732E+10
        56    3       1.76861530E-02  0.00000000E+00  0.00000000E+00  2.61945760E+07  2.61945760E+07
        56    5       2.31750191E-01  0.00000000E+00  0.00000000E+00  5.21774838E+08  5.21774838E+08
        56   66       9.72624376E-04  6.56271082E+06  0.00000000E+00  0.00000000E+00  6.56271082E+06
        56   78       9.72624376E-04  0.00000000E+00  6.56271082E+06  0.00000000E+00  6.56271082E+06
        56   80       9.24066399E-03  0.00000000E+00  8.84247658E+07  0.00000000E+00  8.84247658E+07
        56   68       9.24066399E-03  8.84247658E+07  0.00000000E+00  0.00000000E+00  8.84247658E+07
        56    6       2.77556752E-02  0.00000000E+00  0.00000000E+00  5.02008337E+08  5.02008337E+08
        56    8       4.11519681E-02  0.00000000E+00  0.00000000E+00  9.21464902E+08  9.21464902E+08
        56   10       1.84810354E-04  0.00000000E+00  0.00000000E+00  4.64798035E+06  4.64798035E+06
        56   11       3.65960345E-02  0.00000000E+00  0.00000000E+00  1.09466694E+09  1.09466694E+09
        24   49       2.61612962E-04  0.00000000E+00  2.37676371E+05  0.00000000E+00  2.37676371E+05
        24   70       1.03389361E-03  0.00000000E+00  0.00000000E+00  3.86795381E+06  3.86795381E+06
        24   72       4.54143344E-04  0.00000000E+00  0.00000000E+00  2.28263427E+06  2.28263427E+06
        24   73       6.83002122E-04  0.00000000E+00  0.00000000E+00  3.68664815E+06  3.68664815E+06
        24   74       1.76425482E-02  0.00000000E+00  0.00000000E+00  1.30001589E+08  1.30001589E+08
        24   50       3.23612832E-03  0.00000000E+00  4.35472390E+07  0.00000000E+00  4.35472390E+07
        24   51       1.64228523E-03  0.00000000E+00  2.47147490E+07  0.00000000E+00  2.47147490E+07
        24   13       1.64228523E-03  2.47147490E+07  0.00000000E+00  0.00000000E+00  2.47147490E+07
        24   14       8.81265495E-03  1.40706354E+08  0.00000000E+00  0.00000000E+00  1.40706354E+08
        24   52       9.24184604E-03  0.00000000E+00  1.58390140E+08  0.00000000E+00  1.58390140E+08
        24   15       6.57459546E-04  1.18170404E+07  0.00000000E+00  0.00000000E+00  1.18170404E+07
        24   53       6.57459546E-04  0.00000000E+00  1.18170404E+07  0.00000000E+00  1.18170404E+07
        36   49       2.61612962E-04  2.37676371E+05  0.00000000E+00  0.00000000E+00  2.37676371E+05
        36   82       1.03389361E-03  0.00000000E+00  0.00000000E+00  3.86795381E+06  3.86795381E+06
        36   84       4.54143344E-04  0.00000000E+00  0.00000000E+00  2.28263427E+06  2.28263427E+06
        36   85       6.83002122E-04  0.00000000E+00  0.00000000E+00  3.68664815E+06  3.68664815E+06
        36   86       1.76425482E-02  0.00000000E+00  0.00000000E+00  1.30001589E+08  1.30001589E+08
        36   50       3.23612832E-03  4.35472390E+07  0.00000000E+00  0.00000000E+00  4.35472390E+07
        36   51       1.64228523E-03  2.47147490E+07  0.00000000E+00  0.00000000E+00  2.47147490E+07
        36   13       1.64228523E-03  0.00000000E+00  2.47147490E+07  0.00000000E+00  2.47147490E+07
        36   14       8.81265495E-03  0.00000000E+00  1.40706354E+08  0.00000000E+00  1.40706354E+08
        36   52       9.24184604E-03  1.58390140E+08  0.00000000E+00  0.00000000E+00  1.58390140E+08
        36   15       6.57459546E-04  0.00000000E+00  1.18170404E+07  0.00000000E+00  1.18170404E+07
        36   53       6.57459546E-04  1.18170404E+07  0.00000000E+00  0.00000000E+00  1.18170404E+07
        31    3       9.25083886E-03  0.00000000E+00  6.43605272E+06  0.00000000E+00  6.43605272E+06
        31   44       1.98132160E-03  1.72392938E+06  0.00000000E+00  0.00000000E+00  1.72392938E+06
        31    4       1.98132160E-03  0.00000000E+00  1.72392938E+06  0.00000000E+00  1.72392938E+06
        31    5       1.15278027E-02  0.00000000E+00  1.43983389E+07  0.00000000E+00  1.43983389E+07
        31   77       2.30465131E-03  0.00000000E+00  0.00000000E+00  8.20711721E+06  8.20711721E+06
        31   78       1.89682819E-02  0.00000000E+00  0.00000000E+00  9.30363876E+07  9.30363876E+07
        31   80       1.95755188E-02  0.00000000E+00  0.00000000E+00  1.43817782E+08  1.43817782E+08
        31    6       1.43198869E-02  0.00000000E+00  2.14462160E+08  0.00000000E+00  2.14462160E+08
        31   45       1.95773749E-02  3.02124106E+08  0.00000000E+00  0.00000000E+00  3.02124106E+08
        31    7       1.95773749E-02  0.00000000E+00  3.02124106E+08  0.00000000E+00  3.02124106E+08
        31   46       1.15361725E-03  2.05518173E+07  0.00000000E+00  0.00000000E+00  2.05518173E+07
        31    8       5.71640671E-02  0.00000000E+00  1.08123930E+09  0.00000000E+00  1.08123930E+09
        31    9       5.78853641E-03  0.00000000E+00  1.14858701E+08  0.00000000E+00  1.14858701E+08
        31   47       5.78853641E-03  1.14858701E+08  0.00000000E+00  0.00000000E+00  1.14858701E+08
        31   10       1.64180208E-01  0.00000000E+00  3.52268390E+09  0.00000000E+00  3.52268390E+09
        31   11       5.59943350E-03  0.00000000E+00  1.44860357E+08  0.00000000E+00  1.44860357E+08
        31   12       2.76052834E-04  0.00000000E+00  1.20210241E+07  0.00000000E+00  1.20210241E+07
        19    3       9.25083886E-03  6.43605272E+06  0.00000000E+00  0.00000000E+00  6.43605272E+06
        19   44       1.98132160E-03  0.00000000E+00  1.72392938E+06  0.00000000E+00  1.72392938E+06
        19    4       1.98132160E-03  1.72392938E+06  0.00000000E+00  0.00000000E+00  1.72392938E+06
        19    5       1.15278027E-02  1.43983389E+07  0.00000000E+00  0.00000000E+00  1.43983389E+07
        19   65       2.30465131E-03  0.00000000E+00  0.00000000E+00  8.20711721E+06  8.20711721E+06
        19   66       1.89682819E-02  0.00000000E+00  0.00000000E+00  9.30363876E+07  9.30363876E+07
        19   68       1.95755188E-02  0.00000000E+00  0.00000000E+00  1.43817782E+08  1.43817782E+08
        19    6       1.43198869E-02  2.14462160E+08  0.00000000E+00  0.00000000E+00  2.14462160E+08
        19   45       1.95773749E-02  0.00000000E+00  3.02124106E+08  0.00000000E+00  3.02124106E+08
        19    7       1.95773749E-02  3.02124106E+08  0.00000000E+00  0.00000000E+00  3.02124106E+08
        19   46       1.15361725E-03  0.00000000E+00  2.05518173E+07  0.00000000E+00  2.05518173E+07
        19    8       5.71640671E-02  1.08123930E+09  0.00000000E+00  0.00000000E+00  1.08123930E+09
        19    9       5.78853641E-03  1.14858701E+08  0.00000000E+00  0.00000000E+00  1.14858701E+08
        19   47       5.78853641E-03  0.00000000E+00  1.14858701E+08  0.00000000E+00  1.14858701E+08
        19   10       1.64180208E-01  3.52268390E+09  0.00000000E+00  0.00000000E+00  3.52268390E+09
        19   11       5.59943350E-03  1.44860357E+08  0.00000000E+00  0.00000000E+00  1.44860357E+08
        19   12       2.76052834E-04  1.20210241E+07  0.00000000E+00  0.00000000E+00  1.20210241E+07
        25   49       1.97745088E-04  0.00000000E+00  5.91787615E+04  0.00000000E+00  5.91787615E+04
        25   70       4.26842494E-03  0.00000000E+00  0.00000000E+00  9.96722182E+06  9.96722182E+06
        25   72       1.30314077E-03  0.00000000E+00  0.00000000E+00  4.39192587E+06  4.39192587E+06
        25   74       6.47019643E-05  0.00000000E+00  0.00000000E+00  3.44784949E+05  3.44784949E+05
        25   50       1.28342396E-02  0.00000000E+00  1.36583093E+08  0.00000000E+00  1.36583093E+08
        25   51       4.32983960E-02  0.00000000E+00  5.22314617E+08  0.00000000E+00  5.22314617E+08
        25   13       4.32983960E-02  5.22314617E+08  0.00000000E+00  0.00000000E+00  5.22314617E+08
        25   14       2.79433926E-02  3.60076389E+08  0.00000000E+00  0.00000000E+00  3.60076389E+08
        25   52       3.43520150E-02  0.00000000E+00  4.78897671E+08  0.00000000E+00  4.78897671E+08
        25   15       2.83611563E-02  4.16776799E+08  0.00000000E+00  0.00000000E+00  4.16776799E+08
        25   53       2.83611563E-02  0.00000000E+00  4.16776799E+08  0.00000000E+00  4.16776799E+08
        37   49       1.97745088E-04  5.91787615E+04  0.00000000E+00  0.00000000E+00  5.91787615E+04
        37   82       4.26842494E-03  0.00000000E+00  0.00000000E+00  9.96722182E+06  9.96722182E+06
        37   84       1.30314077E-03  0.00000000E+00  0.00000000E+00  4.39192587E+06  4.39192587E+06
        37   86       6.47019643E-05  0.00000000E+00  0.00000000E+00  3.44784949E+05  3.44784949E+05
        37   50       1.28342396E-02  1.36583093E+08  0.00000000E+00  0.00000000E+00  1.36583093E+08
        37   51       4.32983960E-02  5.22314617E+08  0.00000000E+00  0.00000000E+00  5.22314617E+08
        37   13       4.32983960E-02  0.00000000E+00  5.22314617E+08  0.00000000E+00  5.22314617E+08
        37   14       2.79433926E-02  0.00000000E+00  3.60076389E+08  0.00000000E+00  3.60076389E+08
        37   52       3.43520150E-02  4.78897671E+08  0.00000000E+00  0.00000000E+00  4.78897671E+08
        37   15       2.83611563E-02  0.00000000E+00  4.16776799E+08  0.00000000E+00  4.16776799E+08
        37   53       2.83611563E-02  4.16776799E+08  0.00000000E+00  0.00000000E+00  4.16776799E+08
        32    3       3.62491935E-04  0.00000000E+00  5.40730355E+04  0.00000000E+00  5.40730355E+04
        32   44       2.96582179E-04  6.97376752E+04  0.00000000E+00  0.00000000E+00  6.97376752E+04
        32    4       2.96582179E-04  0.00000000E+00  6.97376752E+04  0.00000000E+00  6.97376752E+04
        32    5       4.98934076E-04  0.00000000E+00  2.23780780E+05  0.00000000E+00  2.23780780E+05
        32   77       9.30216619E-03  0.00000000E+00  0.00000000E+00  1.92679198E+07  1.92679198E+07
        32   78       1.91485167E-03  0.00000000E+00  0.00000000E+00  5.97744086E+06  5.97744086E+06
        32   80       1.70216087E-04  0.00000000E+00  0.00000000E+00  8.71416543E+05  8.71416543E+05
        32    6       1.40491187E-02  0.00000000E+00  1.64523598E+08  0.00000000E+00  1.64523598E+08
        32   45       1.71097755E-02  2.07268321E+08  0.00000000E+00  0.00000000E+00  2.07268321E+08
        32    7       1.71097755E-02  0.00000000E+00  2.07268321E+08  0.00000000E+00  2.07268321E+08
        32   46       1.77777341E-01  2.53064509E+09  0.00000000E+00  0.00000000E+00  2.53064509E+09
        32    8       1.24836084E-03  0.00000000E+00  1.89994804E+07  0.00000000E+00  1.89994804E+07
        32    9       4.80792470E-02  0.00000000E+00  7.71812189E+08  0.00000000E+00  7.71812189E+08
        32   47       4.80792470E-02  7.71812189E+08  0.00000000E+00  0.00000000E+00  7.71812189E+08
        32   10       8.99959603E-03  0.00000000E+00  1.57561274E+08  0.00000000E+00  1.57561274E+08
        32   11       1.29809557E-01  0.00000000E+00  2.79285983E+09  0.00000000E+00  2.79285983E+09
        32   12       2.70390791E-03  0.00000000E+00  1.02304160E+08  0.00000000E+00  1.02304160E+08
        20    3       3.62491935E-04  5.40730355E+04  0.00000000E+00  0.00000000E+00  5.40730355E+04
        20   44       2.96582179E-04  0.00000000E+00  6.97376752E+04  0.00000000E+00  6.97376752E+04
        20    4       2.96582179E-04  6.97376752E+04  0.00000000E+00  0.00000000E+00  6.97376752E+04
        20    5       4.98934076E-04  2.23780780E+05  0.00000000E+00  0.00000000E+00  2.23780780E+05
        20   65       9.30216619E-03  0.00000000E+00  0.00000000E+00  1.92679198E+07  1.92679198E+07
        20   66       1.91485167E-03  0.00000000E+00  0.00000000E+00  5.97744086E+06  5.97744086E+06
        20   68       1.70216087E-04  0.00000000E+00  0.00000000E+00  8.71416543E+05  8.71416543E+05
        20    6       1.40491187E-02  1.64523598E+08  0.00000000E+00  0.00000000E+00  1.64523598E+08
        20   45       1.71097755E-02  0.00000000E+00  2.07268321E+08  0.00000000E+00  2.07268321E+08
        20    7       1.71097755E-02  2.07268321E+08  0.00000000E+00  0.00000000E+00  2.07268321E+08
        20   46       1.77777341E-01  0.00000000E+00  2.53064509E+09  0.00000000E+00  2.53064509E+09
        20    8       1.24836084E-03  1.89994804E+07  0.00000000E+00  0.00000000E+00  1.89994804E+07
        20    9       4.80792470E-02  7.71812189E+08  0.00000000E+00  0.00000000E+00  7.71812189E+08
        20   47       4.80792470E-02  0.00000000E+00  7.71812189E+08  0.00000000E+00  7.71812189E+08
        20   10       8.99959603E-03  1.57561274E+08  0.00000000E+00  0.00000000E+00  1.57561274E+08
        20   11       1.29809557E-01  2.79285983E+09  0.00000000E+00  0.00000000E+00  2.79285983E+09
        20   12       2.70390791E-03  1.02304160E+08  0.00000000E+00  0.00000000E+00  1.02304160E+08
        49   26       1.02274739E-03  0.00000000E+00  2.46031383E+04  0.00000000E+00  2.46031383E+04
        49   38       1.02274739E-03  2.46031383E+04  0.00000000E+00  0.00000000E+00  2.46031383E+04
        49   96       1.97265626E-05  0.00000000E+00  0.00000000E+00  4.86081294E+04  4.86081294E+04
        49   97       8.08804620E-04  0.00000000E+00  0.00000000E+00  6.71911330E+06  6.71911330E+06
        49   39       6.88909104E-05  6.79243720E+05  0.00000000E+00  0.00000000E+00  6.79243720E+05
        49   27       6.88909104E-05  0.00000000E+00  6.79243720E+05  0.00000000E+00  6.79243720E+05
        49   29       5.32203431E-03  0.00000000E+00  6.35463134E+07  0.00000000E+00  6.35463134E+07
        49   41       5.32203431E-03  6.35463134E+07  0.00000000E+00  0.00000000E+00  6.35463134E+07
        49   98       1.78194784E-04  0.00000000E+00  0.00000000E+00  3.80458805E+06  3.80458805E+06
        26   70       2.93740575E-03  0.00000000E+00  0.00000000E+00  2.00388634E+06  2.00388634E+06
        26   72       5.84653380E-02  0.00000000E+00  0.00000000E+00  7.51405980E+07  7.51405980E+07
        26   73       8.65304954E-03  0.00000000E+00  0.00000000E+00  1.27747537E+07  1.27747537E+07
        26   74       2.68910950E-01  0.00000000E+00  0.00000000E+00  6.93817629E+08  6.93817629E+08
        26   50       1.69687163E-03  0.00000000E+00  1.11212049E+07  0.00000000E+00  1.11212049E+07
        26   51       2.42709631E-03  0.00000000E+00  1.86369823E+07  0.00000000E+00  1.86369823E+07
        26   13       2.42709631E-03  1.86369823E+07  0.00000000E+00  0.00000000E+00  1.86369823E+07
        26   14       7.97214501E-04  6.64709896E+06  0.00000000E+00  0.00000000E+00  6.64709896E+06
        26   52       6.17173479E-04  0.00000000E+00  5.67218083E+06  0.00000000E+00  5.67218083E+06
        26   15       8.24503407E-04  8.08426996E+06  0.00000000E+00  0.00000000E+00  8.08426996E+06
        26   53       8.24503407E-04  0.00000000E+00  8.08426996E+06  0.00000000E+00  8.08426996E+06
        38   82       2.93740575E-03  0.00000000E+00  0.00000000E+00  2.00388634E+06  2.00388634E+06
        38   84       5.84653380E-02  0.00000000E+00  0.00000000E+00  7.51405980E+07  7.51405980E+07
        38   85       8.65304954E-03  0.00000000E+00  0.00000000E+00  1.27747537E+07  1.27747537E+07
        38   86       2.68910950E-01  0.00000000E+00  0.00000000E+00  6.93817629E+08  6.93817629E+08
        38   50       1.69687163E-03  1.11212049E+07  0.00000000E+00  0.00000000E+00  1.11212049E+07
        38   51       2.42709631E-03  1.86369823E+07  0.00000000E+00  0.00000000E+00  1.86369823E+07
        38   13       2.42709631E-03  0.00000000E+00  1.86369823E+07  0.00000000E+00  1.86369823E+07
        38   14       7.97214501E-04  0.00000000E+00  6.64709896E+06  0.00000000E+00  6.64709896E+06
        38   52       6.17173479E-04  5.67218083E+06  0.00000000E+00  0.00000000E+00  5.67218083E+06
        38   15       8.24503407E-04  0.00000000E+00  8.08426996E+06  0.00000000E+00  8.08426996E+06
        38   53       8.24503407E-04  8.08426996E+06  0.00000000E+00  0.00000000E+00  8.08426996E+06
         3   33       3.23643706E-05  0.00000000E+00  1.92272730E+04  0.00000000E+00  1.92272730E+04
         3   21       3.23643706E-05  1.92272730E+04  0.00000000E+00  0.00000000E+00  1.92272730E+04
         3   57       3.40002633E-01  0.00000000E+00  0.00000000E+00  2.59564554E+09  2.59564554E+09
         3   22       1.51533013E-04  1.65732873E+06  0.00000000E+00  0.00000000E+00  1.65732873E+06
         3   34       1.51533013E-04  0.00000000E+00  1.65732873E+06  0.00000000E+00  1.65732873E+06
        44   33       2.40706315E-03  1.08727097E+06  0.00000000E+00  0.00000000E+00  1.08727097E+06
        44   21       2.40706315E-03  0.00000000E+00  1.08727097E+06  0.00000000E+00  1.08727097E+06
[...]
        70   97           432.652485  2.45513240E-03  4.60925738E-04
        70   27            34.282854  1.62228619E-01  1.20811119E-01
        70   29            20.709324  1.23511163E-02  1.02321146E-02
        70   98            47.369618  3.23590559E-02  2.19577525E-02
        70   63            75.913725  9.81942706E-04  4.07677281E-03
        33   77            92.823810  3.59038472E-03  5.00319058E-02
        33   78            65.318151  4.34163817E-02  1.25184737E-01
        33    6           175.345389  5.43142148E-03  1.97258487E-03
        33   45            11.290743  7.42830163E-04  6.67468062E-04
        33    7            11.290743  7.42830163E-04  6.67468062E-04
        33   46           309.229578  2.78133365E-03  6.79651177E-04
        33    9           965.037020  1.10353444E-03  1.03614655E-04
        33   47           965.037020  1.10353444E-03  1.03614655E-04
        33   10           138.432885  5.51408453E-02  2.31263591E-02
        33   11           338.577427  1.85119545E-02  4.22090910E-03
        33   12           237.505378  2.60902562E-03  7.73032311E-04
        21   65            92.823810  3.59038472E-03  5.00319058E-02
        21   66            65.318151  4.34163817E-02  1.25184737E-01
        21    6           175.345389  5.43142148E-03  1.97258487E-03
        21   45            11.290743  7.42830163E-04  6.67468062E-04
        21    7            11.290743  7.42830163E-04  6.67468062E-04
        21   46           309.229578  2.78133365E-03  6.79651177E-04
        21    9           965.037020  1.10353444E-03  1.03614655E-04
        21   47           965.037020  1.10353444E-03  1.03614655E-04
        21   10           138.432885  5.51408453E-02  2.31263591E-02
        21   11           338.577427  1.85119545E-02  4.22090910E-03
        21   12           237.505378  2.60902562E-03  7.73032311E-04
        60   72            89.172713  4.26081658E-04  3.93525799E-03
        60   84            89.172713  4.26081658E-04  3.93525799E-03
        60   85            85.453523  5.72880429E-05  3.93827618E-04
        60   73            85.453523  5.72880429E-05  3.93827618E-04
        60   74            20.663456  4.39940230E-04  5.54524067E-04
        60   86            20.663456  4.39940230E-04  5.54524067E-04
        60   14            17.780370  9.67039159E-03  1.17616579E-02
        71   61            96.303474  4.60417382E-04  1.24554075E-02
        71   95            96.303474  4.60417382E-04  1.24554075E-02
        71   28            33.744636  1.71180539E-01  1.27990582E-01
        83   61            96.303474  4.60417382E-04  1.24554075E-02
        83   95            96.303474  4.60417382E-04  1.24554075E-02
        83   40            33.744636  1.71180539E-01  1.27990582E-01
        72   61            76.123949  4.86697009E-05  2.03843180E-04
        72   95            76.123949  4.86697009E-05  2.03843180E-04
        72   96      --------------- below threshold  4.51171171E-03
        72   62            75.053095  1.63442110E-04  6.55159872E-04
        72   97           125.327474  1.78625847E-03  7.92738873E-04
        72   27            40.680826  9.55882103E-04  1.61142180E-03
        72   29            14.166790  7.68224874E-03  6.72896975E-03
        72   98          1512.481138  3.01469640E-03  1.86960103E-04
        72   63            77.001434  1.38221110E-03  6.00998809E-03
        84   61            76.123949  4.86697009E-05  2.03843180E-04
        84   95            76.123949  4.86697009E-05  2.03843180E-04
        84   96      --------------- below threshold  4.51171171E-03
        84   62            75.053095  1.63442110E-04  6.55159872E-04
        84   97           125.327474  1.78625847E-03  7.92738873E-04
        84   39            40.680826  9.55882103E-04  1.61142180E-03
        84   41            14.166790  7.68224874E-03  6.72896975E-03
        84   98          1512.481138  3.01469640E-03  1.86960103E-04
        84   63            77.001434  1.38221110E-03  6.00998809E-03
        65   90           837.562523  1.06920439E-03  1.14040862E-04
        65   57           184.924214  1.08902168E-02  3.82214509E-03
        65   22            39.598894  1.37487129E-01  9.84872622E-02
        65   92           133.413859  3.27515385E-02  1.40315312E-02
        77   90           837.562523  1.06920439E-03  1.14040862E-04
        77   57           184.924214  1.08902168E-02  3.82214509E-03
        77   34            39.598894  1.37487129E-01  9.84872622E-02
        77   92           133.413859  3.27515385E-02  1.40315312E-02
        85   61      --------------- below threshold  1.86527260E-04
        85   95      --------------- below threshold  1.86527260E-04
        85   96            86.133297  4.60135670E-04  3.31827748E-03
        85   62      --------------- below threshold  7.48115491E-05
        85   97            38.093573  2.05341972E-02  1.48697704E-02
        85   39            32.114076  4.77633767E-03  3.61531324E-03
        85   41            28.048371  1.44609757E-01  1.12933695E-01
        85   98            18.650838  5.49242865E-03  6.75167202E-03
        73   61      --------------- below threshold  1.86527260E-04
        73   95      --------------- below threshold  1.86527260E-04
        73   96            86.133297  4.60135670E-04  3.31827748E-03
        73   62      --------------- below threshold  7.48115491E-05
        73   97            38.093573  2.05341972E-02  1.48697704E-02
        73   27            32.114076  4.77633767E-03  3.61531324E-03
        73   29            28.048371  1.44609757E-01  1.12933695E-01
        73   98            18.650838  5.49242865E-03  6.75167202E-03
        61   74            93.896413  5.37329040E-05  8.80349608E-04
        61   86            93.896413  5.37329040E-05  8.80349608E-04
        61   13            18.149574  4.58113514E-02  5.59695941E-02
        61   15            16.175884  1.50279176E-02  1.79279167E-02
        95   74            93.896413  5.37329040E-05  8.80349608E-04
        95   86            93.896413  5.37329040E-05  8.80349608E-04
        95   51            18.149574  4.58113514E-02  5.59695941E-02
        95   53            16.175884  1.50279176E-02  1.79279167E-02
        96   74      ---------------  1.02762166E-05 below threshold
        96   86      ---------------  1.02762166E-05 below threshold
        96   50           239.071328  2.41207319E-03  7.11376337E-04
        96   52            33.779724  1.70194766E-02  2.57013074E-02
        66   90            98.059385  1.83321085E-04  9.44654443E-03
        66   57      ---------------  9.03297492E-03 below threshold
        66   91           177.391845  4.60479836E-03  1.66003379E-03
        66   92            33.312842  2.06054023E-04  3.08986063E-04
        78   90            98.059385  1.83321085E-04  9.44654443E-03
        78   57      ---------------  9.03297492E-03 below threshold
        78   91           177.391845  4.60479836E-03  1.66003379E-03
        78   92            33.312842  2.06054023E-04  3.08986063E-04
        62   74            98.662127  3.68048235E-04  2.75099491E-02
        62   86            98.662127  3.68048235E-04  2.75099491E-02
        62   14            12.689253  2.89958220E-02  3.32099119E-02
        67   91           331.749052  8.89221096E-03  2.05957857E-03
        67   23            23.518524  1.87564981E-01  1.51851701E-01
        79   91           331.749052  8.89221096E-03  2.05957857E-03
        79   35            23.518524  1.87564981E-01  1.51851701E-01
        74   97            67.251937  9.81737147E-05  2.99784803E-04
        74   27            85.658784  5.90512481E-05  4.11758999E-04
        74   29      --------------- below threshold  2.07644769E-04
        74   98            68.186952  2.05369002E-03  1.22107571E-03
        74   63            72.169363  1.39301096E-04  5.00531472E-04
        86   97            67.251937  9.81737147E-05  2.99784803E-04
        86   39            85.658784  5.90512481E-05  4.11758999E-04
        86   41      --------------- below threshold  2.07644769E-04
        86   98            68.186952  2.05369002E-03  1.22107571E-03
        86   63            72.169363  1.39301096E-04  5.00531472E-04
        90   80            98.208965  1.22943453E-05  6.86437915E-04
        90   68            98.208965  1.22943453E-05  6.86437915E-04
        90   46          3050.200283  2.61530259E-03  8.30202004E-05
        80   57            97.909007  1.04414489E-04  4.99353686E-03
        80   91            91.304736  7.11570545E-05  8.18342691E-04
        80   34            58.118773  1.25724475E-04  3.00192909E-04
        80   92            76.030310  3.50931021E-04  1.46406158E-03
        68   57            97.909007  1.04414489E-04  4.99353686E-03
        68   91            91.304736  7.11570545E-05  8.18342691E-04
        68   22            58.118773  1.25724475E-04  3.00192909E-04
        68   92            76.030310  3.50931021E-04  1.46406158E-03
        54   42            45.753489  2.14140502E-04  3.94754424E-04
        54   30            45.753489  2.14140502E-04  3.94754424E-04
        16   42            97.223308  5.25020052E-04  1.89081135E-02
        16   30            97.223308  5.25020052E-04  1.89081135E-02
        17   42            96.783021  3.92759788E-04  1.22089649E-02
        17   30            96.783021  3.92759788E-04  1.22089649E-02
        50   97            96.549844  6.23017823E-04  1.80576695E-02
        50   39            86.509569  1.37454281E-03  1.01890207E-02
        50   27            86.509569  1.37454281E-03  1.01890207E-02
        50   29            94.346363  2.84519803E-05  5.03250950E-04
        50   41            94.346363  2.84519803E-05  5.03250950E-04
        42   18            67.711849  4.29293255E-03  2.55970736E-03
        30   18            67.711849  4.29293255E-03  2.55970736E-03
        97   52            91.561113  8.26333694E-03  9.79197469E-02
        51   39      --------------- below threshold  5.42868798E-04
        51   27      --------------- below threshold  5.42868798E-04
        51   40           226.163527  1.04062854E-03  3.19051167E-04
        51   28           226.163527  1.04062854E-03  3.19051167E-04
        51   29            97.204672  4.73160947E-05  1.69268459E-03
        51   41            97.204672  4.73160947E-05  1.69268459E-03
        13   39      --------------- below threshold  5.42868798E-04
        13   27      --------------- below threshold  5.42868798E-04
        13   40           226.163527  1.04062854E-03  3.19051167E-04
        13   28           226.163527  1.04062854E-03  3.19051167E-04
        13   29            97.204672  4.73160947E-05  1.69268459E-03
        13   41            97.204672  4.73160947E-05  1.69268459E-03
        57    6            68.701629  1.37551108E-02  4.39483285E-02
        57    8            50.452854  3.23528658E-02  6.52971335E-02
        57   10            92.675035  4.50326756E-02  2.33723459E-02
        57   11            87.288496  2.66749352E-04  2.09848775E-03
        14   39            96.806721  6.05782400E-05  1.89705452E-03
        14   27            96.806721  6.05782400E-05  1.89705452E-03
        14   29            95.749852  8.60591118E-05  2.02484995E-03
        14   41            95.749852  8.60591118E-05  2.02484995E-03
        14   63            25.865576  7.54032885E-03  1.01711572E-02
        91   45            50.927007  8.08893885E-03  1.64834839E-02
        91   47            75.992431  2.10894629E-02  8.78450563E-02
        39   52            99.919810  1.72928855E-05  2.15648956E-02
        39   15            98.532627  1.93047424E-05  1.31559856E-03
        39   53            98.532627  1.93047424E-05  1.31559856E-03
        27   52            99.919810  1.72928855E-05  2.15648956E-02
        27   15            98.532627  1.93047424E-05  1.31559856E-03
        27   53            98.532627  1.93047424E-05  1.31559856E-03
        52   29            97.269933  2.91193445E-05  1.06661643E-03
        52   41            97.269933  2.91193445E-05  1.06661643E-03
        52   98            60.880728  1.21365226E-03  3.10244080E-03
         6   22            91.133273  2.17806470E-04  2.45644717E-03
         6   34            91.133273  2.17806470E-04  2.45644717E-03
        15   40            99.985722  1.32129104E-05  9.25383362E-02
        15   28            99.985722  1.32129104E-05  9.25383362E-02
        15   29            98.858654  9.99902766E-05  8.76073655E-03
        15   41            98.858654  9.99902766E-05  8.76073655E-03
        53   40            99.985722  1.32129104E-05  9.25383362E-02
        53   28            99.985722  1.32129104E-05  9.25383362E-02
        53   29            98.858654  9.99902766E-05  8.76073655E-03
        53   41            98.858654  9.99902766E-05  8.76073655E-03
        45   22            97.997424  7.56309260E-05  3.77668206E-03
        45   34            97.997424  7.56309260E-05  3.77668206E-03
        45   23            84.581106  1.02795847E-03  6.66687536E-03
        45   35            84.581106  1.02795847E-03  6.66687536E-03
         7   22            97.997424  7.56309260E-05  3.77668206E-03
         7   34            97.997424  7.56309260E-05  3.77668206E-03
         7   23            84.581106  1.02795847E-03  6.66687536E-03
         7   35            84.581106  1.02795847E-03  6.66687536E-03
        22   46            99.059311  4.21376141E-04  4.47944112E-02
        22    8            99.402848  1.88601378E-04  3.15834555E-02
        22    9            96.765602  5.11213192E-05  1.58055153E-03
        22   47            96.765602  5.11213192E-05  1.58055153E-03
        22   10      --------------- below threshold  1.31174113E-03
        22   11      --------------- below threshold  1.62480577E-03
        22   12            21.678729  1.68496430E-02  1.38476487E-02
        34   46            99.059311  4.21376141E-04  4.47944112E-02
        34    8            99.402848  1.88601378E-04  3.15834555E-02
        34    9            96.765602  5.11213192E-05  1.58055153E-03
        34   47            96.765602  5.11213192E-05  1.58055153E-03
        34   10      --------------- below threshold  1.31174113E-03
        34   11      --------------- below threshold  1.62480577E-03
        34   12            21.678729  1.68496430E-02  1.38476487E-02
         9   23      --------------- below threshold  6.32826179E-01
         9   35      --------------- below threshold  6.32826179E-01
        47   23      --------------- below threshold  6.32826179E-01
        47   35      --------------- below threshold  6.32826179E-01
        23   12           116.919431  2.02933873E-02  9.35526485E-03
        35   12           116.919431  2.02933873E-02  9.35526485E-03
     ---------------------------------------------------------------

 Number of problematic transitions =                   558

--

 Electric-dipole - electric-octupole not included
 Electric-dipole - magnetic-quadrupole not included


      ****************************************************************************************************
      *                                                                                                  *
      *                                    Special properties section                                    *
      *                                                                                                  *
      ****************************************************************************************************


++ I/O STATISTICS
 
  I. General I/O information
  - - - - - - - - - - - - - - - - - - - - - - - - - - - - - - - - - - - - - - - - - - -
  Unit  Name          Flsize      Write/Read            MBytes           Write/Read
                      (MBytes)       Calls              In/Out           Time, sec.
  - - - - - - - - - - - - - - - - - - - - - - - - - - - - - - - - - - - - - - - - - - -
   1  RUNFILE           0.99 .     266/  263027 .      2.5/   1902.8 .       0/       0
   2  ANNI              0.00 .       0/       0 .      0.0/      0.0 .       0/       0
   3  ONEINT            1.54 .       0/  126040 .      0.0/ 152831.4 .       0/      19
   4  JOBIPH            1.52 .       0/     651 .      0.0/      1.5 .       0/       0
   5  JOBIPH01          1.22 .       0/     219 .      0.0/      1.3 .       0/       0
   6  JOBIPH02          1.22 .       0/     219 .      0.0/      1.3 .       0/       0
   7  JOBIPH03          1.28 .       0/     315 .      0.0/      1.4 .       0/       0
   8  JOBIPH04          1.32 .       0/     363 .      0.0/      1.4 .       0/       0
   9  JOBIPH05          1.15 .       0/     123 .      0.0/      1.3 .       0/       0
  10  JOBIPH06          1.28 .       0/     315 .      0.0/      1.4 .       0/       0
  11  JOBIPH07          1.32 .       0/     363 .      0.0/      1.4 .       0/       0
  12  JOBIPH08          1.15 .       0/     123 .      0.0/      1.3 .       0/       0
  13  JOBIPH09          1.28 .       0/     315 .      0.0/      1.4 .       0/       0
  14  JOBIPH10          1.32 .       0/     363 .      0.0/      1.4 .       0/       0
  15  JOBIPH11          1.15 .       0/     123 .      0.0/      1.3 .       0/       0
  16  JOBIPH12          1.22 .       0/     219 .      0.0/      1.3 .       0/       0
  17  JOBIPH13          1.32 .       0/     363 .      0.0/      1.4 .       0/       0
  18  JOBIPH14          1.28 .       0/     315 .      0.0/      1.4 .       0/       0
  19  JOBIPH15          1.32 .       0/     363 .      0.0/      1.4 .       0/       0
  20  JOBIPH16          1.15 .       0/     123 .      0.0/      1.3 .       0/       0
  21  JOBIPH17          1.28 .       0/     315 .      0.0/      1.4 .       0/       0
  22  JOBIPH18          1.32 .       0/     363 .      0.0/      1.4 .       0/       0
  23  JOBIPH19          1.15 .       0/     123 .      0.0/      1.3 .       0/       0
  24  JOBIPH20          1.28 .       0/     315 .      0.0/      1.4 .       0/       0
  25  JOBIPH21          1.32 .       0/     363 .      0.0/      1.4 .       0/       0
  26  JOBIPH22          1.15 .       0/     123 .      0.0/      1.3 .       0/       0
  - - - - - - - - - - - - - - - - - - - - - - - - - - - - - - - - - - - - - - - - - - -
   *  TOTAL            31.50 .     266/  395544 .      2.5/ 154765.3 .       0/      19
  - - - - - - - - - - - - - - - - - - - - - - - - - - - - - - - - - - - - - - - - - - -
 
  II. I/O Access Patterns
  - - - - - - - - - - - - - - - - - - - -
  Unit  Name               % of random
                         Write/Read calls
  - - - - - - - - - - - - - - - - - - - -
   1  RUNFILE             28.6/  11.1
   2  ANNI                 0.0/   0.0
   3  ONEINT               0.0/  99.3
   4  JOBIPH               0.0/  51.9
   5  JOBIPH01             0.0/  55.7
   6  JOBIPH02             0.0/  55.7
   7  JOBIPH03             0.0/  54.0
   8  JOBIPH04             0.0/  53.4
   9  JOBIPH05             0.0/  60.2
  10  JOBIPH06             0.0/  54.0
  11  JOBIPH07             0.0/  53.4
  12  JOBIPH08             0.0/  60.2
  13  JOBIPH09             0.0/  54.0
  14  JOBIPH10             0.0/  53.4
  15  JOBIPH11             0.0/  60.2
  16  JOBIPH12             0.0/  55.7
  17  JOBIPH13             0.0/  53.4
  18  JOBIPH14             0.0/  54.0
  19  JOBIPH15             0.0/  53.4
  20  JOBIPH16             0.0/  60.2
  21  JOBIPH17             0.0/  54.0
  22  JOBIPH18             0.0/  53.4
  23  JOBIPH19             0.0/  60.2
  24  JOBIPH20             0.0/  54.0
  25  JOBIPH21             0.0/  53.4
  26  JOBIPH22             0.0/  60.2
  - - - - - - - - - - - - - - - - - - - -
--
--- Stop Module: rassi at Thu Apr 17 10:52:47 2025 /rc=_RC_ALL_IS_WELL_ ---
--- Module rassi spent 41 seconds ---

.##################.
.# Happy landing! #.
.##################.

    Timing: Wall=41.13 User=19.84 System=20.56
