   This run of MOLCAS is using the pymolcas driver

                             OPE
                             OPE          NMOL  CASOP  ENMOLC A   SO
                 OPE        NMOLC        AS  OP EN  MO LC     AS  OP
                OPENM       OL CA        SO  PE NM  OL CA     SOP EN
                OP EN      MO   LC       AS  OP ENMOL  CASO   PENMOL
                OP  EN     MO   LC       AS  OP EN     MO     LC ASO
               OP   E  NMOL  C  AS       OP  EN MO     LC     AS  OP
               OP  E   NMO   LC AS        OPEN  MO     LCASOP EN   M
               O  PEN   MO  LCA  SO
            OPE   NMO   L   CAS    OP
        OPENMOL  CASOP     ENMOL   CASOPE
     OPENMOLCA   SOPENMOLCASOPEN   MOLCASOPE
    OPENMOLCAS   OP           EN   MOL    CAS
    OPENMOLCAS       OP  ENM        O     LCA
    OPENMOLCAS    OPEN  MOLCASO     P  E  NMO
    OPENMOLCAS     OP               E  N  MOL
    OPENMOLCA   SO           PENM   O  L  CAS    OPEN    MO    LCAS
    OPENMOLCA   SOP           ENM   O  L  CAS   OP  EN  MOLC  AS   O
    OPENMOLCA   SOPE           NM      O  LCA   S      OP  EN MO
    OPENMOLC                AS         O  PEN   M      OL  CA  SOPE
    OPENMO        LCASOPE  NMOL        C  ASO   P      ENMOLC     AS
    OPE     NMO      LCA  SO     P     E   NM   OL  CA SO  PE N   MO
          OPENMOLCA            SOPE   NMO        LCAS  O    P  ENMO
     OPENMOLCASOPENMOLCASOPENMOLCASOPENMOLCA
        OPENMOLCASOPENMOLCASOPENMOLCASOPE
            OPENMOLCASOPENMOLCASOPENM
               OPENMOLCASOPENMOLCA        version: 25.02
                   OPENMOLCASO
                       OPE                tag: 92-gf4b470f0a

 OpenMolcas is free software; you can redistribute it and/or modify it
 under the terms of the GNU Lesser General Public License version 2.1.
 OpenMolcas is distributed in the hope that it will be useful, but it
 is provided "as is" and without any express or implied warranties.
 For more details see the full text of the license in the file
 LICENSE or in <http://www.gnu.org/licenses/>.

                 Copyright (C) The OpenMolcas Authors
           For the author list and the recommended citation,
                   consult the file CONTRIBUTORS.md

           *************************************************
           * pymolcas version py2.29                       *
           *   build 2ba4516c4d154a59cba941070ba63e2c      *
           *   (after the EMIL interpreter by V. Veryazov) *
           *************************************************

configuration info
------------------
Host name: iftia91.univ.gda.pl (Linux)
C Compiler ID: GNU
C flags: -std=gnu99
Fortran Compiler ID: GNU
Fortran flags: -cpp -fdefault-integer-8 -fmax-stack-var-size=1048576
Definitions: _MOLCAS_;_I8_;_LINUX_
Parallel: OFF (GA=OFF)


   --------------------------------------------------------------------
  |
  |           Project: O2
  |    Submitted from: /scratch/tecumseh/WorkSpace/O2.0.9000
  |      Scratch area: /scratch/tecumseh/WorkSpace/O2.0.9000
  |   Save outputs to: WORKDIR
  |            Molcas: /home/tecumseh/program/OpenMolcas/build
  |
  | Scratch area is NOT empty
  |
  |    MOLCAS_DRIVER = /home/tecumseh/program/OpenMolcas/build/pymolcas
  |    MOLCAS_NPROCS = 1
  |    MOLCAS_SOURCE = /home/tecumseh/program/OpenMolcas/OpenMolcas
  | MOLCAS_STRUCTURE = 0
  |
   --------------------------------------------------------------------

++ ---------   Input file   ---------

>>> COPY $dir/vectors/$Project.$R.1Ag-12S.JobIph $WorkDir/JOBIPH

>>> COPY $dir/vectors/$Project.$R.3Ag-3S.JobIph $WorkDir/JOBIPH01

>>> COPY $dir/vectors/$Project.$R.5Ag-3S.JobIph $WorkDir/JOBIPH02

>>> COPY $dir/vectors/$Project.$R.1B3u-5S.JobIph $WorkDir/JOBIPH03

>>> COPY $dir/vectors/$Project.$R.3B3u-6S.JobIph $WorkDir/JOBIPH04

>>> COPY $dir/vectors/$Project.$R.5B3u-1S.JobIph $WorkDir/JOBIPH05

>>> COPY $dir/vectors/$Project.$R.1B2u-5S.JobIph $WorkDir/JOBIPH06

>>> COPY $dir/vectors/$Project.$R.3B2u-6S.JobIph $WorkDir/JOBIPH07

>>> COPY $dir/vectors/$Project.$R.5B2u-1S.JobIph $WorkDir/JOBIPH08

>>> COPY $dir/vectors/$Project.$R.1B1g-5S.JobIph $WorkDir/JOBIPH09

>>> COPY $dir/vectors/$Project.$R.3B1g-6S.JobIph $WorkDir/JOBIPH10

>>> COPY $dir/vectors/$Project.$R.5B1g-1S.JobIph $WorkDir/JOBIPH11

>>> COPY $dir/vectors/$Project.$R.1B1u-3S.JobIph $WorkDir/JOBIPH12

>>> COPY $dir/vectors/$Project.$R.3B1u-6S.JobIph $WorkDir/JOBIPH13

>>> COPY $dir/vectors/$Project.$R.1B2g-5S.JobIph $WorkDir/JOBIPH14

>>> COPY $dir/vectors/$Project.$R.3B2g-6S.JobIph $WorkDir/JOBIPH15

>>> COPY $dir/vectors/$Project.$R.5B2g-1S.JobIph $WorkDir/JOBIPH16

>>> COPY $dir/vectors/$Project.$R.1B3g-5S.JobIph $WorkDir/JOBIPH17

>>> COPY $dir/vectors/$Project.$R.3B3g-6S.JobIph $WorkDir/JOBIPH18

>>> COPY $dir/vectors/$Project.$R.5B3g-1S.JobIph $WorkDir/JOBIPH19

>>> COPY $dir/vectors/$Project.$R.1Au-5S.JobIph $WorkDir/JOBIPH20

>>> COPY $dir/vectors/$Project.$R.3Au-6S.JobIph $WorkDir/JOBIPH21

>>> COPY $dir/vectors/$Project.$R.5Au-1S.JobIph $WorkDir/JOBIPH22

&RASSI

OMEGa
NROF=23 12 3 3 5 6 1 5 6 1 5 6 1 3 6 5 6 1 5 6 1 5 6 1
1 2 3 4 5 6 7 8 9 10 11 12
1 2 3
1 2 3
1 2 3 4 5
1 2 3 4 5 6
1
1 2 3 4 5
1 2 3 4 5 6
1
1 2 3 4 5
1 2 3 4 5 6
1
1 2 3
1 2 3 4 5 6
1 2 3 4 5
1 2 3 4 5 6
1
1 2 3 4 5
1 2 3 4 5 6
1
1 2 3 4 5
1 2 3 4 5 6
1
EJOB

-- ----------------------------------

>>> COPY /home/tecumseh/project/molecule/O2/OpenMolcas/vectors/O2.0.9000.1Ag-12S.JobIph /scratch/tecumseh/WorkSpace/O2.0.9000/JOBIPH

>>> COPY /home/tecumseh/project/molecule/O2/OpenMolcas/vectors/O2.0.9000.3Ag-3S.JobIph /scratch/tecumseh/WorkSpace/O2.0.9000/JOBIPH01

>>> COPY /home/tecumseh/project/molecule/O2/OpenMolcas/vectors/O2.0.9000.5Ag-3S.JobIph /scratch/tecumseh/WorkSpace/O2.0.9000/JOBIPH02

>>> COPY /home/tecumseh/project/molecule/O2/OpenMolcas/vectors/O2.0.9000.1B3u-5S.JobIph /scratch/tecumseh/WorkSpace/O2.0.9000/JOBIPH03

>>> COPY /home/tecumseh/project/molecule/O2/OpenMolcas/vectors/O2.0.9000.3B3u-6S.JobIph /scratch/tecumseh/WorkSpace/O2.0.9000/JOBIPH04

>>> COPY /home/tecumseh/project/molecule/O2/OpenMolcas/vectors/O2.0.9000.5B3u-1S.JobIph /scratch/tecumseh/WorkSpace/O2.0.9000/JOBIPH05

>>> COPY /home/tecumseh/project/molecule/O2/OpenMolcas/vectors/O2.0.9000.1B2u-5S.JobIph /scratch/tecumseh/WorkSpace/O2.0.9000/JOBIPH06

>>> COPY /home/tecumseh/project/molecule/O2/OpenMolcas/vectors/O2.0.9000.3B2u-6S.JobIph /scratch/tecumseh/WorkSpace/O2.0.9000/JOBIPH07

>>> COPY /home/tecumseh/project/molecule/O2/OpenMolcas/vectors/O2.0.9000.5B2u-1S.JobIph /scratch/tecumseh/WorkSpace/O2.0.9000/JOBIPH08

>>> COPY /home/tecumseh/project/molecule/O2/OpenMolcas/vectors/O2.0.9000.1B1g-5S.JobIph /scratch/tecumseh/WorkSpace/O2.0.9000/JOBIPH09

>>> COPY /home/tecumseh/project/molecule/O2/OpenMolcas/vectors/O2.0.9000.3B1g-6S.JobIph /scratch/tecumseh/WorkSpace/O2.0.9000/JOBIPH10

>>> COPY /home/tecumseh/project/molecule/O2/OpenMolcas/vectors/O2.0.9000.5B1g-1S.JobIph /scratch/tecumseh/WorkSpace/O2.0.9000/JOBIPH11

>>> COPY /home/tecumseh/project/molecule/O2/OpenMolcas/vectors/O2.0.9000.1B1u-3S.JobIph /scratch/tecumseh/WorkSpace/O2.0.9000/JOBIPH12

>>> COPY /home/tecumseh/project/molecule/O2/OpenMolcas/vectors/O2.0.9000.3B1u-6S.JobIph /scratch/tecumseh/WorkSpace/O2.0.9000/JOBIPH13

>>> COPY /home/tecumseh/project/molecule/O2/OpenMolcas/vectors/O2.0.9000.1B2g-5S.JobIph /scratch/tecumseh/WorkSpace/O2.0.9000/JOBIPH14

>>> COPY /home/tecumseh/project/molecule/O2/OpenMolcas/vectors/O2.0.9000.3B2g-6S.JobIph /scratch/tecumseh/WorkSpace/O2.0.9000/JOBIPH15

>>> COPY /home/tecumseh/project/molecule/O2/OpenMolcas/vectors/O2.0.9000.5B2g-1S.JobIph /scratch/tecumseh/WorkSpace/O2.0.9000/JOBIPH16

>>> COPY /home/tecumseh/project/molecule/O2/OpenMolcas/vectors/O2.0.9000.1B3g-5S.JobIph /scratch/tecumseh/WorkSpace/O2.0.9000/JOBIPH17

>>> COPY /home/tecumseh/project/molecule/O2/OpenMolcas/vectors/O2.0.9000.3B3g-6S.JobIph /scratch/tecumseh/WorkSpace/O2.0.9000/JOBIPH18

>>> COPY /home/tecumseh/project/molecule/O2/OpenMolcas/vectors/O2.0.9000.5B3g-1S.JobIph /scratch/tecumseh/WorkSpace/O2.0.9000/JOBIPH19

>>> COPY /home/tecumseh/project/molecule/O2/OpenMolcas/vectors/O2.0.9000.1Au-5S.JobIph /scratch/tecumseh/WorkSpace/O2.0.9000/JOBIPH20

>>> COPY /home/tecumseh/project/molecule/O2/OpenMolcas/vectors/O2.0.9000.3Au-6S.JobIph /scratch/tecumseh/WorkSpace/O2.0.9000/JOBIPH21

>>> COPY /home/tecumseh/project/molecule/O2/OpenMolcas/vectors/O2.0.9000.5Au-1S.JobIph /scratch/tecumseh/WorkSpace/O2.0.9000/JOBIPH22

--- Start Module: rassi at Thu Apr 17 11:00:21 2025 ---

()()()()()()()()()()()()()()()()()()()()()()()()()()()()()()()()()()()()()()()()()()()()()()()()()()

                                               &RASSI

                                   only a single process is used
                       available to each process: 2.0 GB of memory, 1 thread?
                                            pid: 298690
()()()()()()()()()()()()()()()()()()()()()()()()()()()()()()()()()()()()()()()()()()()()()()()()()()


      ********************************************************************************
      *                                                                              *
      *                             General data section                             *
      *                                                                              *
      ********************************************************************************

   Specific data for JOBIPH file JOBIPH
   -------------------------------------

   Header from SEWARD:
                            O2, D2h symmetry, aug-cc-pVTZ                      
        Integrals generated by Gateway/Seward, Wed Apr 16 15:47:37 2025        

   CASSCF title (first line only):
       O2, 1Ag 12S                                                             

  STATE IRREP:                1
  SPIN MULTIPLICITY:          1
  ACTIVE ELECTRONS:          12
  MAX RAS1 HOLES:             0
  MAX RAS3 ELECTRONS:         0
  NR OF CONFIG:              60

   Specific data for JOBIPH file JOBIPH01
   -------------------------------------

   Header from SEWARD:
                            O2, D2h symmetry, aug-cc-pVTZ                      
        Integrals generated by Gateway/Seward, Wed Apr 16 15:47:37 2025        

   CASSCF title (first line only):
       O2, 3Ag  3S                                                             

  STATE IRREP:                1
  SPIN MULTIPLICITY:          3
  ACTIVE ELECTRONS:          12
  MAX RAS1 HOLES:             0
  MAX RAS3 ELECTRONS:         0
  NR OF CONFIG:              42

   Specific data for JOBIPH file JOBIPH02
   -------------------------------------

   Header from SEWARD:
                            O2, D2h symmetry, aug-cc-pVTZ                      
        Integrals generated by Gateway/Seward, Wed Apr 16 15:47:37 2025        

   CASSCF title (first line only):
       O2, 5Ag  3S                                                             

  STATE IRREP:                1
  SPIN MULTIPLICITY:          5
  ACTIVE ELECTRONS:          12
  MAX RAS1 HOLES:             0
  MAX RAS3 ELECTRONS:         0
  NR OF CONFIG:              10

   Specific data for JOBIPH file JOBIPH03
   -------------------------------------

   Header from SEWARD:
                            O2, D2h symmetry, aug-cc-pVTZ                      
        Integrals generated by Gateway/Seward, Thu Apr 17 11:00:11 2025        

   CASSCF title (first line only):
       O2, 1B3u 5S                                                             

  STATE IRREP:                2
  SPIN MULTIPLICITY:          1
  ACTIVE ELECTRONS:          12
  MAX RAS1 HOLES:             0
  MAX RAS3 ELECTRONS:         0
  NR OF CONFIG:              40

   Specific data for JOBIPH file JOBIPH04
   -------------------------------------

   Header from SEWARD:
                            O2, D2h symmetry, aug-cc-pVTZ                      
        Integrals generated by Gateway/Seward, Wed Apr 16 15:47:37 2025        

   CASSCF title (first line only):
       O2, 3B3u 6S                                                             

  STATE IRREP:                2
  SPIN MULTIPLICITY:          3
  ACTIVE ELECTRONS:          12
  MAX RAS1 HOLES:             0
  MAX RAS3 ELECTRONS:         0
  NR OF CONFIG:              48

   Specific data for JOBIPH file JOBIPH05
   -------------------------------------

   Header from SEWARD:
                            O2, D2h symmetry, aug-cc-pVTZ                      
        Integrals generated by Gateway/Seward, Wed Apr 16 15:47:37 2025        

   CASSCF title (first line only):
       O2, 5B3u 1S                                                             

  STATE IRREP:                2
  SPIN MULTIPLICITY:          5
  ACTIVE ELECTRONS:          12
  MAX RAS1 HOLES:             0
  MAX RAS3 ELECTRONS:         0
  NR OF CONFIG:               8

   Specific data for JOBIPH file JOBIPH06
   -------------------------------------

   Header from SEWARD:
                            O2, D2h symmetry, aug-cc-pVTZ                      
        Integrals generated by Gateway/Seward, Thu Apr 17 11:00:11 2025        

   CASSCF title (first line only):
       O2, 1B2u 5S                                                             

  STATE IRREP:                3
  SPIN MULTIPLICITY:          1
  ACTIVE ELECTRONS:          12
  MAX RAS1 HOLES:             0
  MAX RAS3 ELECTRONS:         0
  NR OF CONFIG:              40

   Specific data for JOBIPH file JOBIPH07
   -------------------------------------

   Header from SEWARD:
                            O2, D2h symmetry, aug-cc-pVTZ                      
        Integrals generated by Gateway/Seward, Wed Apr 16 15:47:37 2025        

   CASSCF title (first line only):
       O2, 3B2u 6S                                                             

  STATE IRREP:                3
  SPIN MULTIPLICITY:          3
  ACTIVE ELECTRONS:          12
  MAX RAS1 HOLES:             0
  MAX RAS3 ELECTRONS:         0
  NR OF CONFIG:              48

   Specific data for JOBIPH file JOBIPH08
   -------------------------------------

   Header from SEWARD:
                            O2, D2h symmetry, aug-cc-pVTZ                      
        Integrals generated by Gateway/Seward, Wed Apr 16 15:47:37 2025        

   CASSCF title (first line only):
       O2, 5B2u 1S                                                             

  STATE IRREP:                3
  SPIN MULTIPLICITY:          5
  ACTIVE ELECTRONS:          12
  MAX RAS1 HOLES:             0
  MAX RAS3 ELECTRONS:         0
  NR OF CONFIG:               8

   Specific data for JOBIPH file JOBIPH09
   -------------------------------------

   Header from SEWARD:
                            O2, D2h symmetry, aug-cc-pVTZ                      
        Integrals generated by Gateway/Seward, Wed Apr 16 15:47:37 2025        

   CASSCF title (first line only):
       O2, 1B1g 5S                                                             

  STATE IRREP:                4
  SPIN MULTIPLICITY:          1
  ACTIVE ELECTRONS:          12
  MAX RAS1 HOLES:             0
  MAX RAS3 ELECTRONS:         0
  NR OF CONFIG:              36

   Specific data for JOBIPH file JOBIPH10
   -------------------------------------

   Header from SEWARD:
                            O2, D2h symmetry, aug-cc-pVTZ                      
        Integrals generated by Gateway/Seward, Wed Apr 16 15:47:37 2025        

   CASSCF title (first line only):
       O2, 3B1g 6S                                                             

  STATE IRREP:                4
  SPIN MULTIPLICITY:          3
  ACTIVE ELECTRONS:          12
  MAX RAS1 HOLES:             0
  MAX RAS3 ELECTRONS:         0
  NR OF CONFIG:              48

   Specific data for JOBIPH file JOBIPH11
   -------------------------------------

   Header from SEWARD:
                            O2, D2h symmetry, aug-cc-pVTZ                      
        Integrals generated by Gateway/Seward, Wed Apr 16 15:47:37 2025        

   CASSCF title (first line only):
       O2, 5B1g 1S                                                             

  STATE IRREP:                4
  SPIN MULTIPLICITY:          5
  ACTIVE ELECTRONS:          12
  MAX RAS1 HOLES:             0
  MAX RAS3 ELECTRONS:         0
  NR OF CONFIG:              12

   Specific data for JOBIPH file JOBIPH12
   -------------------------------------

   Header from SEWARD:
                            O2, D2h symmetry, aug-cc-pVTZ                      
        Integrals generated by Gateway/Seward, Thu Apr 17 11:00:11 2025        

   CASSCF title (first line only):
       O2, 1B1u 3S                                                             

  STATE IRREP:                5
  SPIN MULTIPLICITY:          1
  ACTIVE ELECTRONS:          12
  MAX RAS1 HOLES:             0
  MAX RAS3 ELECTRONS:         0
  NR OF CONFIG:              44

   Specific data for JOBIPH file JOBIPH13
   -------------------------------------

   Header from SEWARD:
                            O2, D2h symmetry, aug-cc-pVTZ                      
        Integrals generated by Gateway/Seward, Wed Apr 16 15:47:37 2025        

   CASSCF title (first line only):
       O2, 3B1u 6S                                                             

  STATE IRREP:                5
  SPIN MULTIPLICITY:          3
  ACTIVE ELECTRONS:          12
  MAX RAS1 HOLES:             0
  MAX RAS3 ELECTRONS:         0
  NR OF CONFIG:              48

   Specific data for JOBIPH file JOBIPH14
   -------------------------------------

   Header from SEWARD:
                            O2, D2h symmetry, aug-cc-pVTZ                      
        Integrals generated by Gateway/Seward, Wed Apr 16 15:47:37 2025        

   CASSCF title (first line only):
       O2, 1B2g 5S                                                             

  STATE IRREP:                6
  SPIN MULTIPLICITY:          1
  ACTIVE ELECTRONS:          12
  MAX RAS1 HOLES:             0
  MAX RAS3 ELECTRONS:         0
  NR OF CONFIG:              40

   Specific data for JOBIPH file JOBIPH15
   -------------------------------------

   Header from SEWARD:
                            O2, D2h symmetry, aug-cc-pVTZ                      
        Integrals generated by Gateway/Seward, Wed Apr 16 15:47:37 2025        

   CASSCF title (first line only):
       O2, 3B2g 6S                                                             

  STATE IRREP:                6
  SPIN MULTIPLICITY:          3
  ACTIVE ELECTRONS:          12
  MAX RAS1 HOLES:             0
  MAX RAS3 ELECTRONS:         0
  NR OF CONFIG:              48

   Specific data for JOBIPH file JOBIPH16
   -------------------------------------

   Header from SEWARD:
                            O2, D2h symmetry, aug-cc-pVTZ                      
        Integrals generated by Gateway/Seward, Wed Apr 16 15:47:37 2025        

   CASSCF title (first line only):
       O2, 5B2g 1S                                                             

  STATE IRREP:                6
  SPIN MULTIPLICITY:          5
  ACTIVE ELECTRONS:          12
  MAX RAS1 HOLES:             0
  MAX RAS3 ELECTRONS:         0
  NR OF CONFIG:               8

   Specific data for JOBIPH file JOBIPH17
   -------------------------------------

   Header from SEWARD:
                            O2, D2h symmetry, aug-cc-pVTZ                      
        Integrals generated by Gateway/Seward, Wed Apr 16 15:47:37 2025        

   CASSCF title (first line only):
       O2, 1B3g 5S                                                             

  STATE IRREP:                7
  SPIN MULTIPLICITY:          1
  ACTIVE ELECTRONS:          12
  MAX RAS1 HOLES:             0
  MAX RAS3 ELECTRONS:         0
  NR OF CONFIG:              40

   Specific data for JOBIPH file JOBIPH18
   -------------------------------------

   Header from SEWARD:
                            O2, D2h symmetry, aug-cc-pVTZ                      
        Integrals generated by Gateway/Seward, Wed Apr 16 15:47:37 2025        

   CASSCF title (first line only):
       O2, 3B3g 6S                                                             

  STATE IRREP:                7
  SPIN MULTIPLICITY:          3
  ACTIVE ELECTRONS:          12
  MAX RAS1 HOLES:             0
  MAX RAS3 ELECTRONS:         0
  NR OF CONFIG:              48

   Specific data for JOBIPH file JOBIPH19
   -------------------------------------

   Header from SEWARD:
                            O2, D2h symmetry, aug-cc-pVTZ                      
        Integrals generated by Gateway/Seward, Wed Apr 16 15:47:37 2025        

   CASSCF title (first line only):
       O2, 5B3g 1S                                                             

  STATE IRREP:                7
  SPIN MULTIPLICITY:          5
  ACTIVE ELECTRONS:          12
  MAX RAS1 HOLES:             0
  MAX RAS3 ELECTRONS:         0
  NR OF CONFIG:               8

   Specific data for JOBIPH file JOBIPH20
   -------------------------------------

   Header from SEWARD:
                            O2, D2h symmetry, aug-cc-pVTZ                      
        Integrals generated by Gateway/Seward, Thu Apr 17 11:00:11 2025        

   CASSCF title (first line only):
       O2, 1Au 5S                                                              

  STATE IRREP:                8
  SPIN MULTIPLICITY:          1
  ACTIVE ELECTRONS:          12
  MAX RAS1 HOLES:             0
  MAX RAS3 ELECTRONS:         0
  NR OF CONFIG:              36

   Specific data for JOBIPH file JOBIPH21
   -------------------------------------

   Header from SEWARD:
                            O2, D2h symmetry, aug-cc-pVTZ                      
        Integrals generated by Gateway/Seward, Wed Apr 16 15:47:37 2025        

   CASSCF title (first line only):
       O2, 3Au 6S                                                              

  STATE IRREP:                8
  SPIN MULTIPLICITY:          3
  ACTIVE ELECTRONS:          12
  MAX RAS1 HOLES:             0
  MAX RAS3 ELECTRONS:         0
  NR OF CONFIG:              48

   Specific data for JOBIPH file JOBIPH22
   -------------------------------------

   Header from SEWARD:
                            O2, D2h symmetry, aug-cc-pVTZ                      
        Integrals generated by Gateway/Seward, Wed Apr 16 15:47:37 2025        

   CASSCF title (first line only):
       O2, 5Au 1S                                                              

  STATE IRREP:                8
  SPIN MULTIPLICITY:          5
  ACTIVE ELECTRONS:          12
  MAX RAS1 HOLES:             0
  MAX RAS3 ELECTRONS:         0
  NR OF CONFIG:              12
 ###############################################################################
 ###############################################################################
 ###                                                                         ###
 ###                                                                         ###
 ###    WARNING: EJOB used when HEFF is available, possible                  ###
 ###    extra interaction between states is ignored!                         ###
 ###                                                                         ###
 ###                                                                         ###
 ###############################################################################
 ###############################################################################

   The following data are common to all the states:
   ------------------------------------------------
   (note: frozen counts as inactive, deleted as secondary)

      Nr of irreps: 8

                 Total     No./Irrep 
      Irrep                  1   2   3   4   5   6   7   8
                            ag b3u b2u b1g b1u b2g b3g  au

      INACTIVE       2       1   0   0   0   1   0   0   0
      ACTIVE         8       2   1   1   0   2   1   1   0
      SECONDARY     82      16  10  10   5  16  10  10   5
      BASIS         92      19  11  11   5  19  11  11   5

      RAS1           0       0   0   0   0   0   0   0   0
      RAS2           8       2   1   1   0   2   1   1   0
      RAS3           0       0   0   0   0   0   0   0   0

        MATRIX ELEMENTS WILL BE COMPUTED FOR THE FOLLOWING ONE-ELECTRON OPERATORS, UNLESS ZERO BY SYMMETRY.
   (Herm=Hermitian, Anti=Antihermitian, Sing=Singlet operator, Trip=Triplet operator)
     MLTPL  0   1 (HERMSING)     MLTPL  1   1 (HERMSING)     MLTPL  1   2 (HERMSING)
     MLTPL  1   3 (HERMSING)     MLTPL  2   1 (HERMSING)     MLTPL  2   2 (HERMSING)
     MLTPL  2   3 (HERMSING)     MLTPL  2   4 (HERMSING)     MLTPL  2   5 (HERMSING)
     MLTPL  2   6 (HERMSING)     VELOCITY   1 (ANTISING)     VELOCITY   2 (ANTISING)
     VELOCITY   3 (ANTISING)     ANGMOM     1 (ANTISING)     ANGMOM     2 (ANTISING)
     ANGMOM     3 (ANTISING)     MLTPV  2   1 (ANTISING)     MLTPV  2   2 (ANTISING)
     MLTPV  2   3 (ANTISING)     MLTPV  2   4 (ANTISING)     MLTPV  2   5 (ANTISING)
     MLTPV  2   6 (ANTISING)

       EIGENSTATES OF A SPIN-FREE HAMILTONIAN WILL BE COMPUTED BASED ON:

  a Hamiltonian matrix assumed to be diagonal with energies read from the wavefunction file(s).

  Nr of states:                   99

   State:        1   2   3   4   5   6   7   8   9  10  11  12  13  14  15  16  17  18  19  20
  JobIph:        1   1   1   1   1   1   1   1   1   1   1   1   2   2   2   3   3   3   4   4
 Root nr:        1   2   3   4   5   6   7   8   9  10  11  12   1   2   3   1   2   3   1   2

   State:       21  22  23  24  25  26  27  28  29  30  31  32  33  34  35  36  37  38  39  40
  JobIph:        4   4   4   5   5   5   5   5   5   6   7   7   7   7   7   8   8   8   8   8
 Root nr:        3   4   5   1   2   3   4   5   6   1   1   2   3   4   5   1   2   3   4   5

   State:       41  42  43  44  45  46  47  48  49  50  51  52  53  54  55  56  57  58  59  60
  JobIph:        8   9  10  10  10  10  10  11  11  11  11  11  11  12  13  13  13  14  14  14
 Root nr:        6   1   1   2   3   4   5   1   2   3   4   5   6   1   1   2   3   1   2   3

   State:       61  62  63  64  65  66  67  68  69  70  71  72  73  74  75  76  77  78  79  80
  JobIph:       14  14  14  15  15  15  15  15  16  16  16  16  16  16  17  18  18  18  18  18
 Root nr:        4   5   6   1   2   3   4   5   1   2   3   4   5   6   1   1   2   3   4   5

   State:       81  82  83  84  85  86  87  88  89  90  91  92  93  94  95  96  97  98  99
  JobIph:       19  19  19  19  19  19  20  21  21  21  21  21  22  22  22  22  22  22  23
 Root nr:        1   2   3   4   5   6   1   1   2   3   4   5   1   2   3   4   5   6   1

  HAMILTONIAN MATRIX FOR THE ORIGINAL STATES:

  Diagonal, with energies
   -149.63108343   -149.62619279   -149.46718746   -149.42972955   -149.41869241
   -149.38120426   -149.37277587   -149.32669414   -149.30509247   -149.28863308
   -149.23827094   -149.20053584   -149.44161219   -149.44011293   -149.36922371
   -149.52915965   -149.52788475   -149.44972735   -149.54579354   -149.39550699
   -149.37981750   -149.34617920   -149.29977670   -149.56119495   -149.47609039
   -149.46243831   -149.43188321   -149.42780292   -149.38332673   -149.51378495
   -149.54579354   -149.39550699   -149.37981750   -149.34617920   -149.29977670
   -149.56119495   -149.47609039   -149.46243831   -149.43188321   -149.42780292
   -149.38332673   -149.51378495   -149.63108343   -149.42972955   -149.37277587
   -149.28863308   -149.23827094   -149.63789347   -149.50403429   -149.46593212
   -149.44161219   -149.36922371   -149.32186207   -149.52915965   -149.43877534
   -149.38919615   -149.26362603   -149.60700048   -149.60550949   -149.48766561
   -149.48392726   -149.46048487   -149.38262312   -149.52688660   -149.44642832
   -149.40396553   -149.38504351   -149.33852696   -149.53465991   -149.51673599
   -149.48369641   -149.47538502   -149.45060483   -149.40948025   -149.56899996
   -149.52688660   -149.44642832   -149.40396553   -149.38504351   -149.33852696
   -149.53465991   -149.51673599   -149.48369641   -149.47538502   -149.45060483
   -149.40948025   -149.56899996   -149.61619979   -149.43877534   -149.39909039
   -149.30556940   -149.26362603   -149.60700048   -149.52190066   -149.48766561
   -149.45962701   -149.38262312   -149.33739403   -149.54957477

      OVERLAP MATRIX FOR THE ORIGINAL STATES:

  Diagonal, with elements
      1.00000000      1.00000000      1.00000000      1.00000000      1.00000000
      1.00000000      1.00000000      1.00000000      1.00000000      1.00000000
      1.00000000      1.00000000      1.00000000      1.00000000      1.00000000
      1.00000000      1.00000000      1.00000000      1.00000000      1.00000000
      1.00000000      1.00000000      1.00000000      1.00000000      1.00000000
      1.00000000      1.00000000      1.00000000      1.00000000      1.00000000
      1.00000000      1.00000000      1.00000000      1.00000000      1.00000000
      1.00000000      1.00000000      1.00000000      1.00000000      1.00000000
      1.00000000      1.00000000      1.00000000      1.00000000      1.00000000
      1.00000000      1.00000000      1.00000000      1.00000000      1.00000000
      1.00000000      1.00000000      1.00000000      1.00000000      1.00000000
      1.00000000      1.00000000      1.00000000      1.00000000      1.00000000
      1.00000000      1.00000000      1.00000000      1.00000000      1.00000000
      1.00000000      1.00000000      1.00000000      1.00000000      1.00000000
      1.00000000      1.00000000      1.00000000      1.00000000      1.00000000
      1.00000000      1.00000000      1.00000000      1.00000000      1.00000000
      1.00000000      1.00000000      1.00000000      1.00000000      1.00000000
      1.00000000      1.00000000      1.00000000      1.00000000      1.00000000
      1.00000000      1.00000000      1.00000000      1.00000000      1.00000000
      1.00000000      1.00000000      1.00000000      1.00000000

::    RASSI State    1     Total energy:    -149.63108343305501
::    RASSI State    2     Total energy:    -149.62619278709030
::    RASSI State    3     Total energy:    -149.46718745609468
::    RASSI State    4     Total energy:    -149.42972955113800
::    RASSI State    5     Total energy:    -149.41869241057481
::    RASSI State    6     Total energy:    -149.38120426378075
::    RASSI State    7     Total energy:    -149.37277587205190
::    RASSI State    8     Total energy:    -149.32669414392848
::    RASSI State    9     Total energy:    -149.30509247113017
::    RASSI State   10     Total energy:    -149.28863308474504
::    RASSI State   11     Total energy:    -149.23827094358060
::    RASSI State   12     Total energy:    -149.20053583635607
::    RASSI State   13     Total energy:    -149.44161219319915
::    RASSI State   14     Total energy:    -149.44011293496726
::    RASSI State   15     Total energy:    -149.36922370793320
::    RASSI State   16     Total energy:    -149.52915964813909
::    RASSI State   17     Total energy:    -149.52788475342177
::    RASSI State   18     Total energy:    -149.44972734786651
::    RASSI State   19     Total energy:    -149.54579353624095
::    RASSI State   20     Total energy:    -149.39550699005176
::    RASSI State   21     Total energy:    -149.37981750199395
::    RASSI State   22     Total energy:    -149.34617920208177
::    RASSI State   23     Total energy:    -149.29977669521566
::    RASSI State   24     Total energy:    -149.56119495328579
::    RASSI State   25     Total energy:    -149.47609039415892
::    RASSI State   26     Total energy:    -149.46243831245485
::    RASSI State   27     Total energy:    -149.43188320927183
::    RASSI State   28     Total energy:    -149.42780291813534
::    RASSI State   29     Total energy:    -149.38332673160053
::    RASSI State   30     Total energy:    -149.51378494651655
::    RASSI State   31     Total energy:    -149.54579353624095
::    RASSI State   32     Total energy:    -149.39550699005173
::    RASSI State   33     Total energy:    -149.37981750199395
::    RASSI State   34     Total energy:    -149.34617920208157
::    RASSI State   35     Total energy:    -149.29977669521557
::    RASSI State   36     Total energy:    -149.56119495328588
::    RASSI State   37     Total energy:    -149.47609039415892
::    RASSI State   38     Total energy:    -149.46243831245488
::    RASSI State   39     Total energy:    -149.43188320927183
::    RASSI State   40     Total energy:    -149.42780291813537
::    RASSI State   41     Total energy:    -149.38332673160056
::    RASSI State   42     Total energy:    -149.51378494651664
::    RASSI State   43     Total energy:    -149.63108343305518
::    RASSI State   44     Total energy:    -149.42972955113805
::    RASSI State   45     Total energy:    -149.37277587205188
::    RASSI State   46     Total energy:    -149.28863308474502
::    RASSI State   47     Total energy:    -149.23827094358074
::    RASSI State   48     Total energy:    -149.63789347490993
::    RASSI State   49     Total energy:    -149.50403429041484
::    RASSI State   50     Total energy:    -149.46593212097571
::    RASSI State   51     Total energy:    -149.44161219319921
::    RASSI State   52     Total energy:    -149.36922370793320
::    RASSI State   53     Total energy:    -149.32186206589259
::    RASSI State   54     Total energy:    -149.52915964813911
::    RASSI State   55     Total energy:    -149.43877533981612
::    RASSI State   56     Total energy:    -149.38919614931311
::    RASSI State   57     Total energy:    -149.26362603458460
::    RASSI State   58     Total energy:    -149.60700047646696
::    RASSI State   59     Total energy:    -149.60550949184986
::    RASSI State   60     Total energy:    -149.48766561281516
::    RASSI State   61     Total energy:    -149.48392726445650
::    RASSI State   62     Total energy:    -149.46048486964665
::    RASSI State   63     Total energy:    -149.38262312089486
::    RASSI State   64     Total energy:    -149.52688660107637
::    RASSI State   65     Total energy:    -149.44642832383613
::    RASSI State   66     Total energy:    -149.40396553281573
::    RASSI State   67     Total energy:    -149.38504350582329
::    RASSI State   68     Total energy:    -149.33852696499164
::    RASSI State   69     Total energy:    -149.53465991325385
::    RASSI State   70     Total energy:    -149.51673598824581
::    RASSI State   71     Total energy:    -149.48369640735947
::    RASSI State   72     Total energy:    -149.47538502110530
::    RASSI State   73     Total energy:    -149.45060482869744
::    RASSI State   74     Total energy:    -149.40948025404595
::    RASSI State   75     Total energy:    -149.56899996044601
::    RASSI State   76     Total energy:    -149.52688660107634
::    RASSI State   77     Total energy:    -149.44642832383610
::    RASSI State   78     Total energy:    -149.40396553281579
::    RASSI State   79     Total energy:    -149.38504350582321
::    RASSI State   80     Total energy:    -149.33852696499159
::    RASSI State   81     Total energy:    -149.53465991325390
::    RASSI State   82     Total energy:    -149.51673598824584
::    RASSI State   83     Total energy:    -149.48369640735942
::    RASSI State   84     Total energy:    -149.47538502110527
::    RASSI State   85     Total energy:    -149.45060482869749
::    RASSI State   86     Total energy:    -149.40948025404595
::    RASSI State   87     Total energy:    -149.56899996044609
::    RASSI State   88     Total energy:    -149.61619979175012
::    RASSI State   89     Total energy:    -149.43877533981617
::    RASSI State   90     Total energy:    -149.39909039102130
::    RASSI State   91     Total energy:    -149.30556939948954
::    RASSI State   92     Total energy:    -149.26362603458452
::    RASSI State   93     Total energy:    -149.60700047646688
::    RASSI State   94     Total energy:    -149.52190066206313
::    RASSI State   95     Total energy:    -149.48766561281519
::    RASSI State   96     Total energy:    -149.45962701285109
::    RASSI State   97     Total energy:    -149.38262312089478
::    RASSI State   98     Total energy:    -149.33739402948547
::    RASSI State   99     Total energy:    -149.54957476786677



      ****************************************************************************************************
      *                                                                                                  *
      *                                         Spin-free section                                        *
      *                                                                                                  *
      *                 Note: index according to input order, order according to energy.                 *
      *                                                                                                  *
      ****************************************************************************************************



  SPIN-FREE ENERGIES:
  (Shifted by EMIN (a.u.) =       -149.6378934749)

 SF State       Relative EMIN(au)   Rel lowest level(eV)    D:o, cm**(-1)      L_eff   Abs_M

    48             0.0000000000        0.0000000000              0.0000         1.6     0.0
    43             0.0068100419        0.1853106793           1494.6314         2.2     2.0
     1             0.0068100419        0.1853106793           1494.6314         2.2     2.0
     2             0.0117006878        0.3183919356           2568.0041         1.2     0.0
    88             0.0216936832        0.5903151916           4761.2131         1.0     0.0
    58             0.0308929984        0.8406413129           6780.2294         2.0     2.0
    93             0.0308929984        0.8406413129           6780.2294         2.0     2.0
    59             0.0323839831        0.8812130712           7107.4627         1.0     0.0
    87             0.0688935145        1.8746880319          15120.3787         1.8     1.0
    75             0.0688935145        1.8746880319          15120.3787         1.8     1.0
    36             0.0766985216        2.0870730964          16833.3798         2.0     1.0
    24             0.0766985216        2.0870730964          16833.3798         2.0     1.0
    99             0.0883187070        2.4032744501          19383.7157         0.8     0.0
    19             0.0920999387        2.5061670044          20213.6001         1.1     1.0
    31             0.0920999387        2.5061670044          20213.6001         1.1     1.0
    81             0.1032335617        2.8091283198          22657.1479         1.0     1.0
    69             0.1032335617        2.8091283198          22657.1479         1.0     1.0
    54             0.1087338268        2.9587981583          23864.3165         2.0     2.0
    16             0.1087338268        2.9587981583          23864.3165         2.0     2.0
    17             0.1100087215        2.9934898108          24144.1236         0.9     0.0
    64             0.1110068738        3.0206509198          24363.1927         1.8     1.0
    76             0.1110068738        3.0206509198          24363.1927         1.8     1.0
    94             0.1159928128        3.1563252321          25457.4798         2.1     0.0
    82             0.1211574867        3.2968631662          26590.9947         2.0     1.0
    70             0.1211574867        3.2968631662          26590.9947         2.0     1.0
    42             0.1241085284        3.3771651025          27238.6735         0.9     1.0
    30             0.1241085284        3.3771651025          27238.6735         0.9     1.0
    49             0.1338591845        3.6424939719          29378.6952         1.9     0.0
    95             0.1502278621        4.0879083804          32971.2047         2.4     2.0
    60             0.1502278621        4.0879083804          32971.2047         2.4     2.0
    61             0.1539662105        4.1896340215          33791.6773         1.6     0.0
    71             0.1541970676        4.1959159631          33842.3446         2.3     1.0
    83             0.1541970676        4.1959159631          33842.3446         2.3     1.0
    37             0.1618030808        4.4028861261          35511.6715         2.2     1.0
    25             0.1618030808        4.4028861261          35511.6715         2.2     1.0
    72             0.1625084538        4.4220803047          35666.4830         2.9     3.0
    84             0.1625084538        4.4220803047          35666.4830         2.9     3.0
     3             0.1707060188        4.6451474125          37465.6406         1.4     0.0
    50             0.1719613539        4.6793068213          37741.1548         0.9     0.0
    38             0.1754551625        4.7743781944          38507.9571         1.8     1.0
    26             0.1754551625        4.7743781944          38507.9571         1.8     1.0
    62             0.1774086053        4.8275340812          38936.6882         1.4     0.0
    96             0.1782664621        4.8508775538          39124.9660         1.5     0.0
    85             0.1872886462        5.0963836916          41105.1066         1.2     1.0
    73             0.1872886462        5.0963836916          41105.1066         1.2     1.0
    18             0.1881661270        5.1202611614          41297.6914         1.2     0.0
    65             0.1914651511        5.2100321785          42021.7435         3.2     1.0
    77             0.1914651511        5.2100321785          42021.7435         3.2     1.0
    51             0.1962812817        5.3410857695          43078.7619         2.5     2.0
    13             0.1962812817        5.3410857695          43078.7619         2.5     2.0
    14             0.1977805399        5.3818826643          43407.8111         1.8     0.0
    89             0.1991181351        5.4182804826          43701.3793         2.6     2.0
    55             0.1991181351        5.4182804826          43701.3793         2.6     2.0
    27             0.2060102656        5.6058249089          45214.0271         2.9     3.0
    39             0.2060102656        5.6058249089          45214.0271         2.9     3.0
    44             0.2081639238        5.6644289322          45686.7004         3.0     2.0
     4             0.2081639238        5.6644289322          45686.7004         3.0     2.0
    40             0.2100905568        5.7168552870          46109.5475         1.4     1.0
    28             0.2100905568        5.7168552870          46109.5475         1.4     1.0
     5             0.2192010643        5.9647648272          48109.0728         3.0     0.0
    74             0.2284132209        6.2154403766          50130.9074         1.0     1.0
    86             0.2284132209        6.2154403766          50130.9074         1.0     1.0
    78             0.2339279421        6.3655035861          51341.2489         3.7     3.0
    66             0.2339279421        6.3655035861          51341.2489         3.7     3.0
    90             0.2388030839        6.4981629524          52411.2188         2.3     0.0
    20             0.2423864849        6.5956722603          53197.6844         2.1     1.0
    32             0.2423864849        6.5956722603          53197.6844         2.1     1.0
    56             0.2486973256        6.7673989852          54582.7539         1.7     0.0
    67             0.2528499691        6.8803981711          55494.1538         2.3     1.0
    79             0.2528499691        6.8803981711          55494.1538         2.3     1.0
    41             0.2545667433        6.9271139776          55870.9421         1.0     1.0
    29             0.2545667433        6.9271139776          55870.9421         1.0     1.0
    63             0.2552703540        6.9462602003          56025.3668         2.2     2.0
    97             0.2552703540        6.9462602003          56025.3668         2.2     2.0
     6             0.2566892111        6.9848692692          56336.7700         1.4     0.0
    33             0.2580759729        7.0226049798          56641.1290         1.7     1.0
    21             0.2580759729        7.0226049798          56641.1290         1.7     1.0
     7             0.2651176029        7.2142174920          58186.5882         2.3     2.0
    45             0.2651176029        7.2142174920          58186.5882         2.3     2.0
    52             0.2686697670        7.3108768018          58966.1981         2.2     2.0
    15             0.2686697670        7.3108768018          58966.1981         2.2     2.0
    22             0.2917142728        7.9379497514          64023.8825         2.9     3.0
    34             0.2917142728        7.9379497514          64023.8825         2.9     3.0
    68             0.2993665099        8.1461777305          65703.3544         1.8     1.0
    80             0.2993665099        8.1461777305          65703.3544         1.8     1.0
    98             0.3004994454        8.1770064761          65952.0050         1.1     0.0
     8             0.3111993310        8.4681651948          68300.3584         1.7     0.0
    53             0.3160314090        8.5996527366          69360.8770         1.1     0.0
    91             0.3323240754        9.0429987751          72936.7039         1.4     0.0
     9             0.3328010038        9.0559766569          73041.3776         1.3     0.0
    23             0.3381167797        9.2006262885          74208.0556         1.6     1.0
    35             0.3381167797        9.2006262885          74208.0556         1.6     1.0
    10             0.3492603902        9.5038593772          76653.7954         3.9     4.0
    46             0.3492603902        9.5038593772          76653.7954         3.9     4.0
    57             0.3742674403       10.1843358780          82142.2085         2.0     2.0
    92             0.3742674403       10.1843358780          82142.2085         2.0     2.0
    47             0.3996225313       10.8742830526          87707.0077         2.1     2.0
    11             0.3996225313       10.8742830526          87707.0077         2.1     2.0
    12             0.4373576386       11.9011076303          95988.9065         0.8     0.0

++ Dipole transition strengths (spin-free states):
   -----------------------------------------------
     for osc. strength at least  1.00000000E-05

      From   To        Osc. strength     Einstein coefficients Ax, Ay, Az (sec-1)    Total A (sec-1)
     -----------------------------------------------------------------------------------------------
        48   94       4.10618798E-03  0.00000000E+00  0.00000000E+00  1.77505523E+06  1.77505523E+06
        48   96       1.00682855E-04  0.00000000E+00  0.00000000E+00  1.02802978E+05  1.02802978E+05
        48   41       5.08544836E-05  1.05887200E+05  0.00000000E+00  0.00000000E+00  1.05887200E+05
        48   29       5.08544836E-05  0.00000000E+00  1.05887200E+05  0.00000000E+00  1.05887200E+05
        48   98       5.34537102E-04  0.00000000E+00  0.00000000E+00  1.55087247E+06  1.55087247E+06
        43   19       3.83160944E-05  0.00000000E+00  8.95544757E+03  0.00000000E+00  8.95544757E+03
        43   31       3.83160944E-05  8.95544757E+03  0.00000000E+00  0.00000000E+00  8.95544757E+03
        43   89       1.11883103E-03  0.00000000E+00  0.00000000E+00  1.32944541E+06  1.32944541E+06
        43   20       2.29443411E-04  0.00000000E+00  4.09119513E+05  0.00000000E+00  4.09119513E+05
        43   32       2.29443411E-04  4.09119513E+05  0.00000000E+00  0.00000000E+00  4.09119513E+05
        43   33       4.81204581E-05  9.76130426E+04  0.00000000E+00  0.00000000E+00  9.76130426E+04
        43   21       4.81204581E-05  0.00000000E+00  9.76130426E+04  0.00000000E+00  9.76130426E+04
        43   23       4.53886968E-04  0.00000000E+00  1.60073387E+06  0.00000000E+00  1.60073387E+06
        43   35       4.53886968E-04  1.60073387E+06  0.00000000E+00  0.00000000E+00  1.60073387E+06
        43   92       1.29214617E-04  0.00000000E+00  0.00000000E+00  5.60578607E+05  5.60578607E+05
         1   19       3.83160944E-05  8.95544757E+03  0.00000000E+00  0.00000000E+00  8.95544757E+03
         1   31       3.83160944E-05  0.00000000E+00  8.95544757E+03  0.00000000E+00  8.95544757E+03
         1   55       1.11883103E-03  0.00000000E+00  0.00000000E+00  1.32944541E+06  1.32944541E+06
         1   20       2.29443411E-04  4.09119513E+05  0.00000000E+00  0.00000000E+00  4.09119513E+05
         1   32       2.29443411E-04  0.00000000E+00  4.09119513E+05  0.00000000E+00  4.09119513E+05
         1   33       4.81204581E-05  0.00000000E+00  9.76130426E+04  0.00000000E+00  9.76130426E+04
         1   21       4.81204581E-05  9.76130426E+04  0.00000000E+00  0.00000000E+00  9.76130426E+04
         1   23       4.53886968E-04  1.60073387E+06  0.00000000E+00  0.00000000E+00  1.60073387E+06
         1   35       4.53886968E-04  0.00000000E+00  1.60073387E+06  0.00000000E+00  1.60073387E+06
         1   57       1.29214617E-04  0.00000000E+00  0.00000000E+00  5.60578607E+05  5.60578607E+05
         2   19       7.82032822E-05  1.62420135E+04  0.00000000E+00  0.00000000E+00  1.62420135E+04
         2   31       7.82032822E-05  0.00000000E+00  1.62420135E+04  0.00000000E+00  1.62420135E+04
         2   20       2.71553321E-04  4.64309654E+05  0.00000000E+00  0.00000000E+00  4.64309654E+05
         2   32       2.71553321E-04  0.00000000E+00  4.64309654E+05  0.00000000E+00  4.64309654E+05
         2   56       4.03979195E-04  0.00000000E+00  0.00000000E+00  7.29044860E+05  7.29044860E+05
         2   33       1.24978019E-04  0.00000000E+00  2.43746730E+05  0.00000000E+00  2.43746730E+05
         2   21       1.24978019E-04  2.43746730E+05  0.00000000E+00  0.00000000E+00  2.43746730E+05
         2   23       5.17808210E-04  1.77264976E+06  0.00000000E+00  0.00000000E+00  1.77264976E+06
         2   35       5.17808210E-04  0.00000000E+00  1.77264976E+06  0.00000000E+00  1.77264976E+06
        88   64       2.77358845E-05  0.00000000E+00  7.10860059E+03  0.00000000E+00  7.10860059E+03
        88   76       2.77358845E-05  7.10860059E+03  0.00000000E+00  0.00000000E+00  7.10860059E+03
        88   65       3.67905845E-04  0.00000000E+00  3.40703801E+05  0.00000000E+00  3.40703801E+05
        88   77       3.67905845E-04  3.40703801E+05  0.00000000E+00  0.00000000E+00  3.40703801E+05
        88   67       5.59679593E-05  0.00000000E+00  9.60863664E+04  0.00000000E+00  9.60863664E+04
        88   79       5.59679593E-05  9.60863664E+04  0.00000000E+00  0.00000000E+00  9.60863664E+04
        88   68       2.42814055E-04  0.00000000E+00  6.01521933E+05  0.00000000E+00  6.01521933E+05
        88   80       2.42814055E-04  6.01521933E+05  0.00000000E+00  0.00000000E+00  6.01521933E+05
        58   81       2.22018811E-05  0.00000000E+00  3.73305532E+03  0.00000000E+00  3.73305532E+03
        58   69       2.22018811E-05  3.73305532E+03  0.00000000E+00  0.00000000E+00  3.73305532E+03
        58   82       9.94753029E-05  0.00000000E+00  2.60411405E+04  0.00000000E+00  2.60411405E+04
        58   70       9.94753029E-05  2.60411405E+04  0.00000000E+00  0.00000000E+00  2.60411405E+04
        58   71       2.87374991E-05  1.40383049E+04  0.00000000E+00  0.00000000E+00  1.40383049E+04
        58   83       2.87374991E-05  0.00000000E+00  1.40383049E+04  0.00000000E+00  1.40383049E+04
        58   72       1.18746841E-05  6.60916705E+03  0.00000000E+00  0.00000000E+00  6.60916705E+03
        58   84       1.18746841E-05  0.00000000E+00  6.60916705E+03  0.00000000E+00  6.60916705E+03
        58   85       3.44671694E-05  0.00000000E+00  2.70873069E+04  0.00000000E+00  2.70873069E+04
        58   73       3.44671694E-05  2.70873069E+04  0.00000000E+00  0.00000000E+00  2.70873069E+04
        58   13       1.21586206E-04  0.00000000E+00  0.00000000E+00  1.06857416E+05  1.06857416E+05
        58   74       8.27520566E-05  1.03732014E+05  0.00000000E+00  0.00000000E+00  1.03732014E+05
        58   86       8.27520566E-05  0.00000000E+00  1.03732014E+05  0.00000000E+00  1.03732014E+05
        93   81       2.22018811E-05  3.73305532E+03  0.00000000E+00  0.00000000E+00  3.73305532E+03
        93   69       2.22018811E-05  0.00000000E+00  3.73305532E+03  0.00000000E+00  3.73305532E+03
        93   82       9.94753029E-05  2.60411405E+04  0.00000000E+00  0.00000000E+00  2.60411405E+04
        93   70       9.94753029E-05  0.00000000E+00  2.60411405E+04  0.00000000E+00  2.60411405E+04
        93   71       2.87374991E-05  0.00000000E+00  1.40383049E+04  0.00000000E+00  1.40383049E+04
        93   83       2.87374991E-05  1.40383049E+04  0.00000000E+00  0.00000000E+00  1.40383049E+04
        93   72       1.18746841E-05  0.00000000E+00  6.60916705E+03  0.00000000E+00  6.60916705E+03
        93   84       1.18746841E-05  6.60916705E+03  0.00000000E+00  0.00000000E+00  6.60916705E+03
        93   85       3.44671694E-05  2.70873069E+04  0.00000000E+00  0.00000000E+00  2.70873069E+04
        93   73       3.44671694E-05  0.00000000E+00  2.70873069E+04  0.00000000E+00  2.70873069E+04
        93   51       1.21586206E-04  0.00000000E+00  0.00000000E+00  1.06857416E+05  1.06857416E+05
        93   74       8.27520566E-05  0.00000000E+00  1.03732014E+05  0.00000000E+00  1.03732014E+05
        93   86       8.27520566E-05  1.03732014E+05  0.00000000E+00  0.00000000E+00  1.03732014E+05
        59   81       2.84700146E-05  0.00000000E+00  4.59169587E+03  0.00000000E+00  4.59169587E+03
        59   69       2.84700146E-05  4.59169587E+03  0.00000000E+00  0.00000000E+00  4.59169587E+03
        59   82       1.44770272E-04  0.00000000E+00  3.66570063E+04  0.00000000E+00  3.66570063E+04
        59   70       1.44770272E-04  3.66570063E+04  0.00000000E+00  0.00000000E+00  3.66570063E+04
        59   71       1.88685429E-05  8.99574484E+03  0.00000000E+00  0.00000000E+00  8.99574484E+03
        59   83       1.88685429E-05  0.00000000E+00  8.99574483E+03  0.00000000E+00  8.99574483E+03
        59   14       1.22044758E-04  0.00000000E+00  0.00000000E+00  1.07271152E+05  1.07271152E+05
        59   74       1.10563901E-04  1.36510463E+05  0.00000000E+00  0.00000000E+00  1.36510463E+05
        59   86       1.10563901E-04  0.00000000E+00  1.36510463E+05  0.00000000E+00  1.36510463E+05
        87   99       2.75214847E-05  3.33667116E+02  0.00000000E+00  0.00000000E+00  3.33667116E+02
        87   42       3.82763013E-03  0.00000000E+00  0.00000000E+00  3.74934340E+05  3.74934340E+05
        75   99       2.75214847E-05  0.00000000E+00  3.33667116E+02  0.00000000E+00  3.33667116E+02
        75   30       3.82763013E-03  0.00000000E+00  0.00000000E+00  3.74934340E+05  3.74934340E+05
        36   81       7.80874232E-04  0.00000000E+00  0.00000000E+00  1.76657251E+04  1.76657251E+04
        36   82       1.19336308E-05  0.00000000E+00  0.00000000E+00  7.57883018E+02  7.57883018E+02
        36   83       3.58631495E-04  0.00000000E+00  0.00000000E+00  6.92064255E+04  6.92064255E+04
        36   50       4.83526754E-05  1.40986773E+04  0.00000000E+00  0.00000000E+00  1.40986773E+04
        36   85       1.67512652E-03  0.00000000E+00  0.00000000E+00  6.58250491E+05  6.58250491E+05
        36   51       1.14793180E-05  5.27429133E+03  0.00000000E+00  0.00000000E+00  5.27429133E+03
        36   13       1.14793180E-05  0.00000000E+00  5.27429133E+03  0.00000000E+00  5.27429133E+03
        36   86       9.49456794E-04  0.00000000E+00  0.00000000E+00  7.02168610E+05  7.02168610E+05
        36   53       4.34837021E-05  8.00280353E+04  0.00000000E+00  0.00000000E+00  8.00280353E+04
        24   69       7.80874232E-04  0.00000000E+00  0.00000000E+00  1.76657251E+04  1.76657251E+04
        24   70       1.19336308E-05  0.00000000E+00  0.00000000E+00  7.57883018E+02  7.57883018E+02
        24   71       3.58631495E-04  0.00000000E+00  0.00000000E+00  6.92064255E+04  6.92064255E+04
        24   50       4.83526754E-05  0.00000000E+00  1.40986773E+04  0.00000000E+00  1.40986773E+04
        24   73       1.67512652E-03  0.00000000E+00  0.00000000E+00  6.58250491E+05  6.58250491E+05
        24   51       1.14793180E-05  0.00000000E+00  5.27429133E+03  0.00000000E+00  5.27429133E+03
        24   13       1.14793180E-05  5.27429133E+03  0.00000000E+00  0.00000000E+00  5.27429133E+03
        24   74       9.49456794E-04  0.00000000E+00  0.00000000E+00  7.02168610E+05  7.02168610E+05
        24   53       4.34837021E-05  0.00000000E+00  8.00280353E+04  0.00000000E+00  8.00280353E+04
        19   64       4.46410558E-04  0.00000000E+00  0.00000000E+00  5.12728679E+03  5.12728679E+03
        19    3       6.94205340E-05  1.37819641E+04  0.00000000E+00  0.00000000E+00  1.37819641E+04
        19   44       1.48711400E-05  0.00000000E+00  6.43650485E+03  0.00000000E+00  6.43650485E+03
        19    4       1.48711400E-05  6.43650485E+03  0.00000000E+00  0.00000000E+00  6.43650485E+03
        19    5       1.16848288E-05  6.06501709E+03  0.00000000E+00  0.00000000E+00  6.06501709E+03
        19   67       4.09504162E-04  0.00000000E+00  0.00000000E+00  3.39994061E+05  3.39994061E+05
        19    6       3.46559053E-05  3.01641563E+04  0.00000000E+00  0.00000000E+00  3.01641563E+04
        19    7       6.99611500E-05  6.72897186E+04  0.00000000E+00  0.00000000E+00  6.72897186E+04
        19   45       6.99611500E-05  0.00000000E+00  6.72897186E+04  0.00000000E+00  6.72897186E+04
        19   68       3.28783124E-04  0.00000000E+00  0.00000000E+00  4.53815084E+05  4.53815084E+05
        19   47       1.23186328E-05  0.00000000E+00  3.74306568E+04  0.00000000E+00  3.74306568E+04
        19   11       1.23186328E-05  3.74306568E+04  0.00000000E+00  0.00000000E+00  3.74306568E+04
        19   12       1.31195076E-05  5.02475814E+04  0.00000000E+00  0.00000000E+00  5.02475814E+04
        31   76       4.46410558E-04  0.00000000E+00  0.00000000E+00  5.12728679E+03  5.12728679E+03
        31    3       6.94205340E-05  0.00000000E+00  1.37819641E+04  0.00000000E+00  1.37819641E+04
        31   44       1.48711400E-05  6.43650485E+03  0.00000000E+00  0.00000000E+00  6.43650485E+03
        31    4       1.48711400E-05  0.00000000E+00  6.43650485E+03  0.00000000E+00  6.43650485E+03
        31    5       1.16848288E-05  0.00000000E+00  6.06501709E+03  0.00000000E+00  6.06501709E+03
        31   79       4.09504162E-04  0.00000000E+00  0.00000000E+00  3.39994061E+05  3.39994061E+05
        31    6       3.46559053E-05  0.00000000E+00  3.01641563E+04  0.00000000E+00  3.01641563E+04
        31    7       6.99611500E-05  0.00000000E+00  6.72897186E+04  0.00000000E+00  6.72897186E+04
        31   45       6.99611500E-05  6.72897186E+04  0.00000000E+00  0.00000000E+00  6.72897186E+04
        31   80       3.28783124E-04  0.00000000E+00  0.00000000E+00  4.53815084E+05  4.53815084E+05
        31   47       1.23186328E-05  3.74306568E+04  0.00000000E+00  0.00000000E+00  3.74306568E+04
        31   11       1.23186328E-05  0.00000000E+00  3.74306568E+04  0.00000000E+00  3.74306568E+04
        31   12       1.31195076E-05  0.00000000E+00  5.02475814E+04  0.00000000E+00  5.02475814E+04
        81   95       1.64624689E-05  1.16814358E+03  0.00000000E+00  0.00000000E+00  1.16814358E+03
        81   60       1.64624689E-05  0.00000000E+00  1.16814358E+03  0.00000000E+00  1.16814358E+03
        81   37       7.85920897E-05  0.00000000E+00  0.00000000E+00  8.66229631E+03  8.66229631E+03
        81   38       6.01490630E-04  0.00000000E+00  0.00000000E+00  1.00803119E+05  1.00803119E+05
        81   62       5.06959342E-05  0.00000000E+00  8.96189051E+03  0.00000000E+00  8.96189051E+03
        81   96       2.53324300E-05  4.58238107E+03  0.00000000E+00  0.00000000E+00  4.58238107E+03
        81   40       2.95964423E-04  0.00000000E+00  0.00000000E+00  1.08581617E+05  1.08581617E+05
        81   41       1.23997159E-04  0.00000000E+00  0.00000000E+00  9.12411905E+04  9.12411905E+04
        69   95       1.64624689E-05  0.00000000E+00  1.16814358E+03  0.00000000E+00  1.16814358E+03
        69   60       1.64624689E-05  1.16814358E+03  0.00000000E+00  0.00000000E+00  1.16814358E+03
        69   25       7.85920897E-05  0.00000000E+00  0.00000000E+00  8.66229631E+03  8.66229631E+03
        69   26       6.01490630E-04  0.00000000E+00  0.00000000E+00  1.00803119E+05  1.00803119E+05
        69   62       5.06959342E-05  8.96189051E+03  0.00000000E+00  0.00000000E+00  8.96189051E+03
        69   96       2.53324300E-05  0.00000000E+00  4.58238107E+03  0.00000000E+00  4.58238107E+03
        69   28       2.95964423E-04  0.00000000E+00  0.00000000E+00  1.08581617E+05  1.08581617E+05
        69   29       1.23997159E-04  0.00000000E+00  0.00000000E+00  9.12411905E+04  9.12411905E+04
        64   20       7.72471228E-05  0.00000000E+00  0.00000000E+00  4.28399681E+04  4.28399681E+04
        64   56       2.02845525E-05  1.23561725E+04  0.00000000E+00  0.00000000E+00  1.23561725E+04
        64   21       5.67744987E-04  0.00000000E+00  0.00000000E+00  3.94554549E+05  3.94554549E+05
        64   23       1.01156255E-05  0.00000000E+00  0.00000000E+00  1.67639277E+04  1.67639277E+04
        76   32       7.72471228E-05  0.00000000E+00  0.00000000E+00  4.28399681E+04  4.28399681E+04
        76   56       2.02845525E-05  0.00000000E+00  1.23561725E+04  0.00000000E+00  1.23561725E+04
        76   33       5.67744987E-04  0.00000000E+00  0.00000000E+00  3.94554549E+05  3.94554549E+05
        76   35       1.01156255E-05  0.00000000E+00  0.00000000E+00  1.67639277E+04  1.67639277E+04
        94   49       2.19490925E-03  0.00000000E+00  0.00000000E+00  2.25112794E+04  2.25112794E+04
        94   50       2.99833101E-03  0.00000000E+00  0.00000000E+00  3.01771646E+05  3.01771646E+05
        94   85       1.11300535E-05  1.81775954E+03  0.00000000E+00  0.00000000E+00  1.81775954E+03
        94   73       1.11300535E-05  0.00000000E+00  1.81775954E+03  0.00000000E+00  1.81775954E+03
        94   74       1.21164406E-05  0.00000000E+00  4.92012632E+03  0.00000000E+00  4.92012632E+03
        94   86       1.21164406E-05  4.92012632E+03  0.00000000E+00  0.00000000E+00  4.92012632E+03
        94   53       1.93894821E-03  0.00000000E+00  0.00000000E+00  2.49289902E+06  2.49289902E+06
        82   37       8.82362930E-04  0.00000000E+00  0.00000000E+00  4.68365706E+04  4.68365706E+04
        82   38       1.52192983E-04  0.00000000E+00  0.00000000E+00  1.44167708E+04  1.44167708E+04
        82   96       2.38512379E-05  2.49936995E+03  0.00000000E+00  0.00000000E+00  2.49936995E+03
        82   41       1.84606903E-03  0.00000000E+00  0.00000000E+00  1.05567624E+06  1.05567624E+06
        82   98       1.03932422E-05  1.07405309E+04  0.00000000E+00  0.00000000E+00  1.07405309E+04
        70   25       8.82362930E-04  0.00000000E+00  0.00000000E+00  4.68365706E+04  4.68365706E+04
        70   26       1.52192983E-04  0.00000000E+00  0.00000000E+00  1.44167708E+04  1.44167708E+04
        70   96       2.38512379E-05  0.00000000E+00  2.49936995E+03  0.00000000E+00  2.49936995E+03
        70   29       1.84606903E-03  0.00000000E+00  0.00000000E+00  1.05567624E+06  1.05567624E+06
        70   98       1.03932422E-05  0.00000000E+00  1.07405309E+04  0.00000000E+00  1.07405309E+04
        42   18       2.65192016E-05  0.00000000E+00  3.49633177E+03  0.00000000E+00  3.49633177E+03
        30   18       2.65192016E-05  3.49633177E+03  0.00000000E+00  0.00000000E+00  3.49633177E+03
        49   37       1.15531132E-05  2.89857027E+02  0.00000000E+00  0.00000000E+00  2.89857027E+02
        49   25       1.15531132E-05  0.00000000E+00  2.89857027E+02  0.00000000E+00  2.89857027E+02
        49   41       2.25161910E-05  1.05408283E+04  0.00000000E+00  0.00000000E+00  1.05408283E+04
        49   29       2.25161910E-05  0.00000000E+00  1.05408283E+04  0.00000000E+00  1.05408283E+04
        49   98       7.89520171E-04  0.00000000E+00  0.00000000E+00  7.04423745E+05  7.04423745E+05
        61   74       2.60329166E-05  4.63583782E+03  0.00000000E+00  0.00000000E+00  4.63583782E+03
        61   86       2.60329166E-05  0.00000000E+00  4.63583782E+03  0.00000000E+00  4.63583782E+03
        71   26       1.67278794E-05  0.00000000E+00  0.00000000E+00  2.42884867E+02  2.42884867E+02
        71   28       3.32640799E-03  0.00000000E+00  0.00000000E+00  3.33894174E+05  3.33894174E+05
        71   29       7.81788554E-05  0.00000000E+00  0.00000000E+00  2.53049354E+04  2.53049354E+04
        83   38       1.67278794E-05  0.00000000E+00  0.00000000E+00  2.42884867E+02  2.42884867E+02
        83   40       3.32640799E-03  0.00000000E+00  0.00000000E+00  3.33894174E+05  3.33894174E+05
        83   41       7.81788554E-05  0.00000000E+00  0.00000000E+00  2.53049354E+04  2.53049354E+04
        37   86       1.00887361E-03  0.00000000E+00  0.00000000E+00  1.43822999E+05  1.43822999E+05
        25   74       1.00887361E-03  0.00000000E+00  0.00000000E+00  1.43822999E+05  1.43822999E+05
        72   27       2.24268333E-03  0.00000000E+00  0.00000000E+00  1.36362052E+05  1.36362052E+05
        72   63       3.20312854E-05  8.85573318E+03  0.00000000E+00  0.00000000E+00  8.85573318E+03
        72   97       3.20312854E-05  0.00000000E+00  8.85573318E+03  0.00000000E+00  8.85573318E+03
        84   39       2.24268333E-03  0.00000000E+00  0.00000000E+00  1.36362052E+05  1.36362052E+05
        84   63       3.20312854E-05  0.00000000E+00  8.85573318E+03  0.00000000E+00  8.85573318E+03
        84   97       3.20312854E-05  8.85573318E+03  0.00000000E+00  0.00000000E+00  8.85573318E+03
         3   33       1.62987982E-05  0.00000000E+00  3.99752032E+03  0.00000000E+00  3.99752032E+03
         3   21       1.62987982E-05  3.99752032E+03  0.00000000E+00  0.00000000E+00  3.99752032E+03
         3   23       1.00838165E-05  9.08034934E+03  0.00000000E+00  0.00000000E+00  9.08034934E+03
         3   35       1.00838165E-05  0.00000000E+00  9.08034934E+03  0.00000000E+00  9.08034934E+03
        50   98       2.43570480E-04  0.00000000E+00  0.00000000E+00  1.29300210E+05  1.29300210E+05
        38   85       3.21727452E-04  0.00000000E+00  0.00000000E+00  1.44751889E+03  1.44751889E+03
        38   86       1.29638840E-04  0.00000000E+00  0.00000000E+00  1.16818097E+04  1.16818097E+04
        26   73       3.21727452E-04  0.00000000E+00  0.00000000E+00  1.44751889E+03  1.44751889E+03
        26   74       1.29638840E-04  0.00000000E+00  0.00000000E+00  1.16818097E+04  1.16818097E+04
        85   41       8.98939347E-04  0.00000000E+00  0.00000000E+00  1.30734037E+05  1.30734037E+05
        85   63       1.93144518E-05  0.00000000E+00  2.86798854E+03  0.00000000E+00  2.86798854E+03
        85   97       1.93144518E-05  2.86798854E+03  0.00000000E+00  0.00000000E+00  2.86798854E+03
        85   98       5.38270697E-05  2.21660002E+04  0.00000000E+00  0.00000000E+00  2.21660002E+04
        73   29       8.98939347E-04  0.00000000E+00  0.00000000E+00  1.30734037E+05  1.30734037E+05
        73   63       1.93144518E-05  2.86798854E+03  0.00000000E+00  0.00000000E+00  2.86798854E+03
        73   97       1.93144518E-05  0.00000000E+00  2.86798854E+03  0.00000000E+00  2.86798854E+03
        73   98       5.38270697E-05  0.00000000E+00  2.21660002E+04  0.00000000E+00  2.21660002E+04
        65   90       2.35869785E-05  0.00000000E+00  1.69825058E+03  0.00000000E+00  1.69825058E+03
        65   20       1.85559596E-03  0.00000000E+00  0.00000000E+00  1.54594430E+05  1.54594430E+05
        65   21       5.63419997E-04  0.00000000E+00  0.00000000E+00  8.03216690E+04  8.03216690E+04
        65   23       2.98412469E-03  0.00000000E+00  0.00000000E+00  2.06206157E+06  2.06206157E+06
        77   90       2.35869785E-05  1.69825058E+03  0.00000000E+00  0.00000000E+00  1.69825058E+03
        77   32       1.85559596E-03  0.00000000E+00  0.00000000E+00  1.54594430E+05  1.54594430E+05
        77   33       5.63419997E-04  0.00000000E+00  0.00000000E+00  8.03216690E+04  8.03216690E+04
        77   35       2.98412469E-03  0.00000000E+00  0.00000000E+00  2.06206157E+06  2.06206157E+06
        89   44       1.39889859E-03  0.00000000E+00  0.00000000E+00  3.67781594E+03  3.67781594E+03
        89   45       2.13882313E-03  0.00000000E+00  0.00000000E+00  2.99341287E+05  2.99341287E+05
        89   47       1.65324437E-03  0.00000000E+00  0.00000000E+00  2.13548111E+06  2.13548111E+06
        55    4       1.39889859E-03  0.00000000E+00  0.00000000E+00  3.67781594E+03  3.67781594E+03
        55    7       2.13882313E-03  0.00000000E+00  0.00000000E+00  2.99341287E+05  2.99341287E+05
        55   11       1.65324437E-03  0.00000000E+00  0.00000000E+00  2.13548111E+06  2.13548111E+06
        44   33       1.16008318E-05  9.28561798E+02  0.00000000E+00  0.00000000E+00  9.28561798E+02
        44   21       1.16008318E-05  0.00000000E+00  9.28561798E+02  0.00000000E+00  9.28561798E+02
        44   23       2.21821936E-05  0.00000000E+00  1.20361345E+04  0.00000000E+00  1.20361345E+04
        44   35       2.21821936E-05  1.20361345E+04  0.00000000E+00  0.00000000E+00  1.20361345E+04
        44   92       1.09237132E-03  0.00000000E+00  0.00000000E+00  9.68364429E+05  9.68364429E+05
         4   33       1.16008318E-05  0.00000000E+00  9.28561798E+02  0.00000000E+00  9.28561798E+02
         4   21       1.16008318E-05  9.28561798E+02  0.00000000E+00  0.00000000E+00  9.28561798E+02
         4   23       2.21821936E-05  1.20361345E+04  0.00000000E+00  0.00000000E+00  1.20361345E+04
         4   35       2.21821936E-05  0.00000000E+00  1.20361345E+04  0.00000000E+00  1.20361345E+04
         4   57       1.09237132E-03  0.00000000E+00  0.00000000E+00  9.68364428E+05  9.68364428E+05
        40   53       1.01196792E-05  3.64925786E+03  0.00000000E+00  0.00000000E+00  3.64925786E+03
        28   53       1.01196792E-05  0.00000000E+00  3.64925786E+03  0.00000000E+00  3.64925786E+03
         5   56       3.21440411E-03  0.00000000E+00  0.00000000E+00  8.98556313E+04  8.98556313E+04
        74   29       5.83496246E-04  0.00000000E+00  0.00000000E+00  1.28235813E+04  1.28235813E+04
        74   98       2.60409136E-05  0.00000000E+00  4.34782105E+03  0.00000000E+00  4.34782105E+03
        86   41       5.83496246E-04  0.00000000E+00  0.00000000E+00  1.28235813E+04  1.28235813E+04
        86   98       2.60409136E-05  4.34782105E+03  0.00000000E+00  0.00000000E+00  4.34782105E+03
        78   34       3.97408267E-03  0.00000000E+00  0.00000000E+00  4.26381171E+05  4.26381171E+05
        66   22       3.97408267E-03  0.00000000E+00  0.00000000E+00  4.26381171E+05  4.26381171E+05
        20   68       1.33620077E-03  0.00000000E+00  0.00000000E+00  1.39388798E+05  1.39388798E+05
        20    8       5.61919346E-05  8.54916913E+03  0.00000000E+00  0.00000000E+00  8.54916913E+03
        20    9       1.52435855E-05  4.00381834E+03  0.00000000E+00  0.00000000E+00  4.00381834E+03
        32   80       1.33620077E-03  0.00000000E+00  0.00000000E+00  1.39388798E+05  1.39388798E+05
        32    8       5.61919346E-05  0.00000000E+00  8.54916913E+03  0.00000000E+00  8.54916913E+03
        32    9       1.52435855E-05  0.00000000E+00  4.00381834E+03  0.00000000E+00  4.00381834E+03
        56    6       1.46910643E-05  0.00000000E+00  0.00000000E+00  3.01482878E+01  3.01482878E+01
        56   68       1.77998894E-05  1.46830411E+03  0.00000000E+00  0.00000000E+00  1.46830411E+03
        56   80       1.77998894E-05  0.00000000E+00  1.46830411E+03  0.00000000E+00  1.46830411E+03
        56    8       5.13203679E-03  0.00000000E+00  0.00000000E+00  6.44152279E+05  6.44152279E+05
        56    9       2.21234416E-04  0.00000000E+00  0.00000000E+00  5.02798011E+04  5.02798011E+04
        56   12       3.75193777E-03  0.00000000E+00  0.00000000E+00  4.29069467E+06  4.29069467E+06
        67   21       2.27856489E-04  0.00000000E+00  0.00000000E+00  1.99945544E+02  1.99945544E+02
        67   91       2.75573149E-05  0.00000000E+00  5.59241109E+03  0.00000000E+00  5.59241109E+03
        67   23       1.75578777E-03  0.00000000E+00  0.00000000E+00  4.10150212E+05  4.10150212E+05
        79   33       2.27856489E-04  0.00000000E+00  0.00000000E+00  1.99945544E+02  1.99945544E+02
        79   91       2.75573149E-05  5.59241109E+03  0.00000000E+00  0.00000000E+00  5.59241109E+03
        79   35       1.75578777E-03  0.00000000E+00  0.00000000E+00  4.10150212E+05  4.10150212E+05
        41   53       1.36256601E-05  1.65393898E+03  0.00000000E+00  0.00000000E+00  1.65393898E+03
        29   53       1.36256601E-05  0.00000000E+00  1.65393898E+03  0.00000000E+00  1.65393898E+03
        33   80       3.18439647E-04  0.00000000E+00  0.00000000E+00  1.74437189E+04  1.74437189E+04
        33    9       1.61329006E-05  0.00000000E+00  2.89437999E+03  0.00000000E+00  2.89437999E+03
        21   68       3.18439647E-04  0.00000000E+00  0.00000000E+00  1.74437189E+04  1.74437189E+04
        21    9       1.61329006E-05  2.89437999E+03  0.00000000E+00  0.00000000E+00  2.89437999E+03
         7   57       9.53496954E-05  0.00000000E+00  0.00000000E+00  3.64986146E+04  3.64986146E+04
        45   92       9.53496954E-05  0.00000000E+00  0.00000000E+00  3.64986146E+04  3.64986146E+04
        22   47       1.09005802E-05  0.00000000E+00  4.07821263E+03  0.00000000E+00  4.07821263E+03
        22   11       1.09005802E-05  4.07821263E+03  0.00000000E+00  0.00000000E+00  4.07821263E+03
        34   47       1.09005802E-05  4.07821263E+03  0.00000000E+00  0.00000000E+00  4.07821263E+03
        34   11       1.09005802E-05  0.00000000E+00  4.07821263E+03  0.00000000E+00  4.07821263E+03
        68   23       1.17882342E-03  0.00000000E+00  0.00000000E+00  5.68733881E+04  5.68733881E+04
        68   57       2.71860429E-05  4.90039746E+03  0.00000000E+00  0.00000000E+00  4.90039746E+03
        68   92       2.71860429E-05  0.00000000E+00  4.90039746E+03  0.00000000E+00  4.90039746E+03
        80   35       1.17882342E-03  0.00000000E+00  0.00000000E+00  5.68733881E+04  5.68733881E+04
        80   57       2.71860429E-05  0.00000000E+00  4.90039746E+03  0.00000000E+00  4.90039746E+03
        80   92       2.71860429E-05  4.90039746E+03  0.00000000E+00  0.00000000E+00  4.90039746E+03
     -----------------------------------------------------------------------------------------------
--

++ Velocity transition strengths (spin-free states):
   -------------------------------------------------
     for osc. strength at least  1.00000000E-05

      From   To        Osc. strength     Einstein coefficients Ax, Ay, Az (sec-1)    Total A (sec-1)
     -----------------------------------------------------------------------------------------------
        48   36       7.24201461E-05  1.36881345E+04  0.00000000E+00  0.00000000E+00  1.36881345E+04
        48   24       7.24201461E-05  0.00000000E+00  1.36881346E+04  0.00000000E+00  1.36881346E+04
        48   94       2.59787355E-05  0.00000000E+00  0.00000000E+00  1.12302921E+04  1.12302921E+04
        48   38       5.38899353E-05  5.33029012E+04  0.00000000E+00  0.00000000E+00  5.33029012E+04
        48   26       5.38899353E-05  0.00000000E+00  5.33029012E+04  0.00000000E+00  5.33029012E+04
        48   96       3.41619434E-04  0.00000000E+00  0.00000000E+00  3.48813064E+05  3.48813064E+05
        48   40       2.70079719E-05  3.83015121E+04  0.00000000E+00  0.00000000E+00  3.83015121E+04
        48   28       2.70079719E-05  0.00000000E+00  3.83015121E+04  0.00000000E+00  3.83015121E+04
        48   41       1.68877787E-04  3.51630667E+05  0.00000000E+00  0.00000000E+00  3.51630667E+05
        48   29       1.68877787E-04  0.00000000E+00  3.51630668E+05  0.00000000E+00  3.51630668E+05
        48   98       1.14010646E-04  0.00000000E+00  0.00000000E+00  3.30783347E+05  3.30783347E+05
        43   19       8.80245326E-04  0.00000000E+00  2.05735762E+05  0.00000000E+00  2.05735762E+05
        43   31       8.80245326E-04  2.05735762E+05  0.00000000E+00  0.00000000E+00  2.05735762E+05
        43   89       1.09149154E-05  0.00000000E+00  0.00000000E+00  1.29695939E+04  1.29695939E+04
        43   20       5.36618290E-04  0.00000000E+00  9.56841657E+05  0.00000000E+00  9.56841657E+05
        43   32       5.36618290E-04  9.56841657E+05  0.00000000E+00  0.00000000E+00  9.56841657E+05
        43   33       1.14758080E-04  2.32788419E+05  0.00000000E+00  0.00000000E+00  2.32788419E+05
        43   21       1.14758080E-04  0.00000000E+00  2.32788419E+05  0.00000000E+00  2.32788419E+05
        43   22       1.64133077E-04  0.00000000E+00  4.28060142E+05  0.00000000E+00  4.28060142E+05
        43   34       1.64133077E-04  4.28060142E+05  0.00000000E+00  0.00000000E+00  4.28060142E+05
        43   23       7.60560422E-04  0.00000000E+00  2.68228636E+06  0.00000000E+00  2.68228636E+06
        43   35       7.60560422E-04  2.68228636E+06  0.00000000E+00  0.00000000E+00  2.68228636E+06
        43   92       1.54432290E-04  0.00000000E+00  0.00000000E+00  6.69981772E+05  6.69981772E+05
         1   19       8.80245326E-04  2.05735762E+05  0.00000000E+00  0.00000000E+00  2.05735762E+05
         1   31       8.80245326E-04  0.00000000E+00  2.05735762E+05  0.00000000E+00  2.05735762E+05
         1   55       1.09149154E-05  0.00000000E+00  0.00000000E+00  1.29695939E+04  1.29695939E+04
         1   20       5.36618290E-04  9.56841657E+05  0.00000000E+00  0.00000000E+00  9.56841657E+05
         1   32       5.36618290E-04  0.00000000E+00  9.56841657E+05  0.00000000E+00  9.56841657E+05
         1   33       1.14758080E-04  0.00000000E+00  2.32788419E+05  0.00000000E+00  2.32788419E+05
         1   21       1.14758080E-04  2.32788419E+05  0.00000000E+00  0.00000000E+00  2.32788419E+05
         1   22       1.64133077E-04  4.28060142E+05  0.00000000E+00  0.00000000E+00  4.28060142E+05
         1   34       1.64133077E-04  0.00000000E+00  4.28060142E+05  0.00000000E+00  4.28060142E+05
         1   23       7.60560422E-04  2.68228636E+06  0.00000000E+00  0.00000000E+00  2.68228636E+06
         1   35       7.60560422E-04  0.00000000E+00  2.68228636E+06  0.00000000E+00  2.68228636E+06
         1   57       1.54432290E-04  0.00000000E+00  0.00000000E+00  6.69981772E+05  6.69981772E+05
         2   19       3.80141628E-05  7.89514876E+03  0.00000000E+00  0.00000000E+00  7.89514876E+03
         2   31       3.80141628E-05  0.00000000E+00  7.89514876E+03  0.00000000E+00  7.89514876E+03
         2   20       1.80491111E-04  3.08608877E+05  0.00000000E+00  0.00000000E+00  3.08608877E+05
         2   32       1.80491111E-04  0.00000000E+00  3.08608877E+05  0.00000000E+00  3.08608877E+05
         2   56       8.01077967E-05  0.00000000E+00  0.00000000E+00  1.44567290E+05  1.44567290E+05
         2   33       6.52895133E-04  0.00000000E+00  1.27335235E+06  0.00000000E+00  1.27335235E+06
         2   21       6.52895133E-04  1.27335235E+06  0.00000000E+00  0.00000000E+00  1.27335235E+06
         2   23       5.88804222E-04  2.01569547E+06  0.00000000E+00  0.00000000E+00  2.01569547E+06
         2   35       5.88804222E-04  0.00000000E+00  2.01569547E+06  0.00000000E+00  2.01569547E+06
        88   64       1.12914772E-04  0.00000000E+00  2.89396220E+04  0.00000000E+00  2.89396220E+04
        88   76       1.12914772E-04  2.89396220E+04  0.00000000E+00  0.00000000E+00  2.89396220E+04
        88   65       6.25758466E-04  0.00000000E+00  5.79491439E+05  0.00000000E+00  5.79491439E+05
        88   77       6.25758466E-04  5.79491439E+05  0.00000000E+00  0.00000000E+00  5.79491439E+05
        88   67       6.09726510E-04  0.00000000E+00  1.04678472E+06  0.00000000E+00  1.04678472E+06
[...]
        85   41           227.619948  8.98939347E-04  2.74384802E-04
        85   63            97.171922  1.93144518E-05  6.82953371E-04
        85   97            97.171922  1.93144518E-05  6.82953371E-04
        85   98            29.673715  5.38270697E-05  4.15096225E-05
        73   28      --------------- below threshold  2.99020434E-05
        73   29           227.619948  8.98939347E-04  2.74384802E-04
        73   63            97.171922  1.93144518E-05  6.82953371E-04
        73   97            97.171922  1.93144518E-05  6.82953371E-04
        73   98            29.673715  5.38270697E-05  4.15096225E-05
        65   89      --------------- below threshold  1.81526562E-03
        65   55      --------------- below threshold  1.81526562E-03
        65   90            98.600108  2.35869785E-05  1.68491363E-03
        65   20          1275.212599  1.85559596E-03  1.34931571E-04
        65   56      --------------- below threshold  6.00975853E-05
        65   21          4169.691990  5.63419997E-04  1.31957996E-05
        65   23          1499.650241  2.98412469E-03  1.86548572E-04
        77   89      --------------- below threshold  1.81526562E-03
        77   55      --------------- below threshold  1.81526562E-03
        77   90            98.600108  2.35869785E-05  1.68491363E-03
        77   32          1275.212599  1.85559596E-03  1.34931571E-04
        77   56      --------------- below threshold  6.00975853E-05
        77   33          4169.691991  5.63419997E-04  1.31957996E-05
        77   35          1499.650241  2.98412469E-03  1.86548572E-04
        51   27      --------------- below threshold  1.80069738E-03
        51   39      --------------- below threshold  1.80069738E-03
        51   40      --------------- below threshold  1.59419309E-03
        51   28      --------------- below threshold  1.59419309E-03
        51   41      --------------- below threshold  3.42542856E-04
        51   29      --------------- below threshold  3.42542856E-04
        13   27      --------------- below threshold  1.80069738E-03
        13   39      --------------- below threshold  1.80069738E-03
        13   40      --------------- below threshold  1.59419309E-03
        13   28      --------------- below threshold  1.59419309E-03
        13   41      --------------- below threshold  3.42542856E-04
        13   29      --------------- below threshold  3.42542856E-04
        14   40      --------------- below threshold  5.27840041E-03
        14   28      --------------- below threshold  5.27840041E-03
        89   44           107.754433  1.39889859E-03  6.73342353E-04
        89   78      --------------- below threshold  1.74726932E-04
        89   66      --------------- below threshold  1.74726932E-04
        89   67      --------------- below threshold  7.55445613E-04
        89   79      --------------- below threshold  7.55445613E-04
        89   45          4168.777826  2.13882313E-03  5.01038755E-05
        89   68      --------------- below threshold  2.66963826E-04
        89   80      --------------- below threshold  2.66963826E-04
        89   47      ---------------  1.65324437E-03 below threshold
        55    4           107.754433  1.39889859E-03  6.73342353E-04
        55   78      --------------- below threshold  1.74726932E-04
        55   66      --------------- below threshold  1.74726932E-04
        55   67      --------------- below threshold  7.55445613E-04
        55   79      --------------- below threshold  7.55445613E-04
        55    7          4168.777826  2.13882313E-03  5.01038755E-05
        55   68      --------------- below threshold  2.66963826E-04
        55   80      --------------- below threshold  2.66963826E-04
        55   11      ---------------  1.65324437E-03 below threshold
        27   52      --------------- below threshold  1.69621317E-03
        27   15      --------------- below threshold  1.69621317E-03
        39   52      --------------- below threshold  1.69621317E-03
        39   15      --------------- below threshold  1.69621317E-03
        44   20      --------------- below threshold  2.82868165E-04
        44   32      --------------- below threshold  2.82868165E-04
        44   33            98.284740  1.16008318E-05  6.76330644E-04
        44   21            98.284740  1.16008318E-05  6.76330644E-04
        44   22      --------------- below threshold  5.18971815E-05
        44   34      --------------- below threshold  5.18971815E-05
        44   23            43.173552  2.21821936E-05  1.54932201E-05
        44   35            43.173552  2.21821936E-05  1.54932201E-05
        44   92      ---------------  1.09237132E-03 below threshold
         4   20      --------------- below threshold  2.82868165E-04
         4   32      --------------- below threshold  2.82868165E-04
         4   33            98.284740  1.16008318E-05  6.76330644E-04
         4   21            98.284740  1.16008318E-05  6.76330644E-04
         4   22      --------------- below threshold  5.18971815E-05
         4   34      --------------- below threshold  5.18971815E-05
         4   23            43.173552  2.21821936E-05  1.54932201E-05
         4   35            43.173552  2.21821936E-05  1.54932201E-05
         4   57      ---------------  1.09237132E-03 below threshold
        40   86      --------------- below threshold  8.16385098E-05
        40   52      --------------- below threshold  9.20839503E-04
        40   15      --------------- below threshold  9.20839503E-04
        40   53            98.869830  1.01196792E-05  8.95412311E-04
        28   74      --------------- below threshold  8.16385098E-05
        28   52      --------------- below threshold  9.20839503E-04
        28   15      --------------- below threshold  9.20839503E-04
        28   53            98.869830  1.01196792E-05  8.95412311E-04
         5   20      --------------- below threshold  2.63324488E-04
         5   32      --------------- below threshold  2.63324488E-04
         5   33      --------------- below threshold  5.63553648E-04
         5   21      --------------- below threshold  5.63553648E-04
         5   23      --------------- below threshold  3.17570137E-05
         5   35      --------------- below threshold  3.17570137E-05
        74   29            15.101476  5.83496246E-04  6.87286677E-04
        74   63      --------------- below threshold  9.80676455E-04
        74   97      --------------- below threshold  9.80676455E-04
        74   98            98.791723  2.60409136E-05  2.15521073E-03
        86   41            15.101476  5.83496246E-04  6.87286677E-04
        86   63      --------------- below threshold  9.80676455E-04
        86   97      --------------- below threshold  9.80676455E-04
        86   98            98.791723  2.60409136E-05  2.15521073E-03
        78   34          1499.465103  3.97408267E-03  2.48463231E-04
        78   57      --------------- below threshold  1.52004196E-03
        78   92      --------------- below threshold  1.52004196E-03
        66   22          1499.465103  3.97408267E-03  2.48463231E-04
        66   57      --------------- below threshold  1.52004196E-03
        66   92      --------------- below threshold  1.52004196E-03
        90   67      --------------- below threshold  8.95484925E-03
        90   79      --------------- below threshold  8.95484925E-03
        90   68      --------------- below threshold  5.30149340E-04
        90   80      --------------- below threshold  5.30149340E-04
        20   67      --------------- below threshold  9.04926712E-04
        20    6      --------------- below threshold  4.54146884E-03
        20    7      --------------- below threshold  1.28714745E-03
        20   45      --------------- below threshold  1.28714745E-03
        20   68            23.966253  1.33620077E-03  1.75737858E-03
        20    8            26.349680  5.61919346E-05  7.62955746E-05
        20    9            86.919151  1.52435855E-05  1.16533606E-04
        20   47      --------------- below threshold  1.40080250E-05
        20   11      --------------- below threshold  1.40080250E-05
        20   12      --------------- below threshold  1.53547406E-04
        32   79      --------------- below threshold  9.04926712E-04
        32    6      --------------- below threshold  4.54146884E-03
        32    7      --------------- below threshold  1.28714745E-03
        32   45      --------------- below threshold  1.28714745E-03
        32   80            23.966253  1.33620077E-03  1.75737858E-03
        32    8            26.349680  5.61919346E-05  7.62955746E-05
        32    9            86.919151  1.52435855E-05  1.16533606E-04
        32   47      --------------- below threshold  1.40080250E-05
        32   11      --------------- below threshold  1.40080250E-05
        32   12      --------------- below threshold  1.53547406E-04
        56   67      --------------- below threshold  1.79575161E-03
        56   79      --------------- below threshold  1.79575161E-03
        56    6            99.926514  1.46910643E-05  1.99916430E-02
        56   68      ---------------  1.77998894E-05 below threshold
        56   80      ---------------  1.77998894E-05 below threshold
        56    8            38.316060  5.13203679E-03  8.31989135E-03
        56    9           343.912268  2.21234416E-04  4.98374189E-05
        56   12         20148.915362  3.75193777E-03  1.85290802E-05
        67   21           215.607828  2.27856489E-04  7.21960827E-05
        67   91            97.707643  2.75573149E-05  1.20213905E-03
        67   23           237.087389  1.75578777E-03  5.20870205E-04
        67   57      --------------- below threshold  5.45089804E-04
        67   92      --------------- below threshold  5.45089804E-04
        79   33           215.607828  2.27856489E-04  7.21960827E-05
        79   91            97.707643  2.75573149E-05  1.20213905E-03
        79   35           237.087389  1.75578777E-03  5.20870205E-04
        79   57      --------------- below threshold  5.45089804E-04
        79   92      --------------- below threshold  5.45089804E-04
        41   52      --------------- below threshold  3.85000207E-05
        41   15      --------------- below threshold  3.85000207E-05
        41   53            99.464274  1.36256601E-05  2.54340000E-03
        29   52      --------------- below threshold  3.85000207E-05
        29   15      --------------- below threshold  3.85000207E-05
        29   53            99.464274  1.36256601E-05  2.54340000E-03
        63   15      --------------- below threshold  5.92048467E-05
        97   52      --------------- below threshold  5.92048467E-05
         6   33      --------------- below threshold  7.91800950E-02
         6   21      --------------- below threshold  7.91800950E-02
         6   23      --------------- below threshold  8.85496868E-05
         6   35      --------------- below threshold  8.85496868E-05
        33    7      --------------- below threshold  8.97874908E-04
        33   45      --------------- below threshold  8.97874908E-04
        33   80           718.154734  3.18439647E-04  3.89216897E-05
        33    8      --------------- below threshold  4.77529851E-05
        33    9            98.925668  1.61329006E-05  1.50166758E-03
        33   47      --------------- below threshold  2.51360207E-04
        33   11      --------------- below threshold  2.51360207E-04
        33   12      --------------- below threshold  1.16759828E-04
        21    7      --------------- below threshold  8.97874908E-04
        21   45      --------------- below threshold  8.97874908E-04
        21   68           718.154734  3.18439647E-04  3.89216897E-05
        21    8      --------------- below threshold  4.77529851E-05
        21    9            98.925668  1.61329006E-05  1.50166758E-03
        21   47      --------------- below threshold  2.51360207E-04
        21   11      --------------- below threshold  2.51360207E-04
        21   12      --------------- below threshold  1.16759828E-04
         7   22      --------------- below threshold  9.58362203E-04
         7   34      --------------- below threshold  9.58362203E-04
         7   23      --------------- below threshold  6.07854791E-04
         7   35      --------------- below threshold  6.07854791E-04
         7   57            97.897948  9.53496954E-05  4.81812452E-05
        45   22      --------------- below threshold  9.58362203E-04
        45   34      --------------- below threshold  9.58362203E-04
        45   23      --------------- below threshold  6.07854791E-04
        45   35      --------------- below threshold  6.07854791E-04
        45   92            97.897948  9.53496954E-05  4.81812452E-05
        22   10      --------------- below threshold  1.22578701E-04
        22   46      --------------- below threshold  1.22578701E-04
        22   47            99.021797  1.09005802E-05  1.11434716E-03
        22   11            99.021797  1.09005802E-05  1.11434716E-03
        34   10      --------------- below threshold  1.22578701E-04
        34   46      --------------- below threshold  1.22578701E-04
        34   47            99.021797  1.09005802E-05  1.11434716E-03
        34   11            99.021797  1.09005802E-05  1.11434716E-03
        68   91      --------------- below threshold  1.94774514E-03
        68   23            17.911292  1.17882342E-03  1.43603603E-03
        68   57            84.624157  2.71860429E-05  1.76810100E-04
        68   92            84.624157  2.71860429E-05  1.76810100E-04
        80   91      --------------- below threshold  1.94774514E-03
        80   35            17.911292  1.17882342E-03  1.43603603E-03
        80   57            84.624157  2.71860429E-05  1.76810100E-04
        80   92            84.624157  2.71860429E-05  1.76810100E-04
        98   53      --------------- below threshold  2.49736186E-04
         8   23      --------------- below threshold  2.82210685E-03
         8   35      --------------- below threshold  2.82210685E-03
         9   23      --------------- below threshold  3.63720828E-03
         9   35      --------------- below threshold  3.63720828E-03
        23   47      --------------- below threshold  7.25553290E-04
        23   11      --------------- below threshold  7.25553290E-04
        23   12      --------------- below threshold  2.57484136E-03
        35   47      --------------- below threshold  7.25553290E-04
        35   11      --------------- below threshold  7.25553290E-04
        35   12      --------------- below threshold  2.57484136E-03
        57   11      --------------- below threshold  5.86798032E-05
        92   47      --------------- below threshold  5.86798032E-05
     ---------------------------------------------------------------

 Number of problematic transitions =                   536

--

 Electric-dipole - electric-octupole not included
 Electric-dipole - magnetic-quadrupole not included


      ****************************************************************************************************
      *                                                                                                  *
      *                                    Special properties section                                    *
      *                                                                                                  *
      ****************************************************************************************************


++ I/O STATISTICS
 
  I. General I/O information
  - - - - - - - - - - - - - - - - - - - - - - - - - - - - - - - - - - - - - - - - - - -
  Unit  Name          Flsize      Write/Read            MBytes           Write/Read
                      (MBytes)       Calls              In/Out           Time, sec.
  - - - - - - - - - - - - - - - - - - - - - - - - - - - - - - - - - - - - - - - - - - -
   1  RUNFILE           0.99 .     266/  263081 .      2.5/   1903.2 .       0/       0
   2  ANNI              0.00 .       0/       0 .      0.0/      0.0 .       0/       0
   3  ONEINT            1.54 .       0/  126040 .      0.0/ 152831.4 .       0/      19
   4  JOBIPH            1.52 .       0/     651 .      0.0/      1.5 .       0/       0
   5  JOBIPH01          1.22 .       0/     219 .      0.0/      1.3 .       0/       0
   6  JOBIPH02          1.22 .       0/     219 .      0.0/      1.3 .       0/       0
   7  JOBIPH03          1.28 .       0/     315 .      0.0/      1.4 .       0/       0
   8  JOBIPH04          1.32 .       0/     363 .      0.0/      1.4 .       0/       0
   9  JOBIPH05          1.15 .       0/     123 .      0.0/      1.3 .       0/       0
  10  JOBIPH06          1.28 .       0/     315 .      0.0/      1.4 .       0/       0
  11  JOBIPH07          1.32 .       0/     363 .      0.0/      1.4 .       0/       0
  12  JOBIPH08          1.15 .       0/     123 .      0.0/      1.3 .       0/       0
  13  JOBIPH09          1.28 .       0/     315 .      0.0/      1.4 .       0/       0
  14  JOBIPH10          1.32 .       0/     363 .      0.0/      1.4 .       0/       0
  15  JOBIPH11          1.15 .       0/     123 .      0.0/      1.3 .       0/       0
  16  JOBIPH12          1.22 .       0/     219 .      0.0/      1.3 .       0/       0
  17  JOBIPH13          1.32 .       0/     363 .      0.0/      1.4 .       0/       0
  18  JOBIPH14          1.28 .       0/     315 .      0.0/      1.4 .       0/       0
  19  JOBIPH15          1.32 .       0/     363 .      0.0/      1.4 .       0/       0
  20  JOBIPH16          1.15 .       0/     123 .      0.0/      1.3 .       0/       0
  21  JOBIPH17          1.28 .       0/     315 .      0.0/      1.4 .       0/       0
  22  JOBIPH18          1.32 .       0/     363 .      0.0/      1.4 .       0/       0
  23  JOBIPH19          1.15 .       0/     123 .      0.0/      1.3 .       0/       0
  24  JOBIPH20          1.28 .       0/     315 .      0.0/      1.4 .       0/       0
  25  JOBIPH21          1.32 .       0/     363 .      0.0/      1.4 .       0/       0
  26  JOBIPH22          1.15 .       0/     123 .      0.0/      1.3 .       0/       0
  - - - - - - - - - - - - - - - - - - - - - - - - - - - - - - - - - - - - - - - - - - -
   *  TOTAL            31.50 .     266/  395598 .      2.5/ 154765.6 .       0/      19
  - - - - - - - - - - - - - - - - - - - - - - - - - - - - - - - - - - - - - - - - - - -
 
  II. I/O Access Patterns
  - - - - - - - - - - - - - - - - - - - -
  Unit  Name               % of random
                         Write/Read calls
  - - - - - - - - - - - - - - - - - - - -
   1  RUNFILE             28.6/  11.1
   2  ANNI                 0.0/   0.0
   3  ONEINT               0.0/  99.3
   4  JOBIPH               0.0/  51.9
   5  JOBIPH01             0.0/  55.7
   6  JOBIPH02             0.0/  55.7
   7  JOBIPH03             0.0/  54.0
   8  JOBIPH04             0.0/  53.4
   9  JOBIPH05             0.0/  60.2
  10  JOBIPH06             0.0/  54.0
  11  JOBIPH07             0.0/  53.4
  12  JOBIPH08             0.0/  60.2
  13  JOBIPH09             0.0/  54.0
  14  JOBIPH10             0.0/  53.4
  15  JOBIPH11             0.0/  60.2
  16  JOBIPH12             0.0/  55.7
  17  JOBIPH13             0.0/  53.4
  18  JOBIPH14             0.0/  54.0
  19  JOBIPH15             0.0/  53.4
  20  JOBIPH16             0.0/  60.2
  21  JOBIPH17             0.0/  54.0
  22  JOBIPH18             0.0/  53.4
  23  JOBIPH19             0.0/  60.2
  24  JOBIPH20             0.0/  54.0
  25  JOBIPH21             0.0/  53.4
  26  JOBIPH22             0.0/  60.2
  - - - - - - - - - - - - - - - - - - - -
--
--- Stop Module: rassi at Thu Apr 17 11:01:01 2025 /rc=_RC_ALL_IS_WELL_ ---
--- Module rassi spent 40 seconds ---

.##################.
.# Happy landing! #.
.##################.

    Timing: Wall=40.92 User=19.98 System=20.55
