   This run of MOLCAS is using the pymolcas driver

                             OPE
                             OPE          NMOL  CASOP  ENMOLC A   SO
                 OPE        NMOLC        AS  OP EN  MO LC     AS  OP
                OPENM       OL CA        SO  PE NM  OL CA     SOP EN
                OP EN      MO   LC       AS  OP ENMOL  CASO   PENMOL
                OP  EN     MO   LC       AS  OP EN     MO     LC ASO
               OP   E  NMOL  C  AS       OP  EN MO     LC     AS  OP
               OP  E   NMO   LC AS        OPEN  MO     LCASOP EN   M
               O  PEN   MO  LCA  SO
            OPE   NMO   L   CAS    OP
        OPENMOL  CASOP     ENMOL   CASOPE
     OPENMOLCA   SOPENMOLCASOPEN   MOLCASOPE
    OPENMOLCAS   OP           EN   MOL    CAS
    OPENMOLCAS       OP  ENM        O     LCA
    OPENMOLCAS    OPEN  MOLCASO     P  E  NMO
    OPENMOLCAS     OP               E  N  MOL
    OPENMOLCA   SO           PENM   O  L  CAS    OPEN    MO    LCAS
    OPENMOLCA   SOP           ENM   O  L  CAS   OP  EN  MOLC  AS   O
    OPENMOLCA   SOPE           NM      O  LCA   S      OP  EN MO
    OPENMOLC                AS         O  PEN   M      OL  CA  SOPE
    OPENMO        LCASOPE  NMOL        C  ASO   P      ENMOLC     AS
    OPE     NMO      LCA  SO     P     E   NM   OL  CA SO  PE N   MO
          OPENMOLCA            SOPE   NMO        LCAS  O    P  ENMO
     OPENMOLCASOPENMOLCASOPENMOLCASOPENMOLCA
        OPENMOLCASOPENMOLCASOPENMOLCASOPE
            OPENMOLCASOPENMOLCASOPENM
               OPENMOLCASOPENMOLCA        version: 25.02
                   OPENMOLCASO
                       OPE                tag: 92-gf4b470f0a

 OpenMolcas is free software; you can redistribute it and/or modify it
 under the terms of the GNU Lesser General Public License version 2.1.
 OpenMolcas is distributed in the hope that it will be useful, but it
 is provided "as is" and without any express or implied warranties.
 For more details see the full text of the license in the file
 LICENSE or in <http://www.gnu.org/licenses/>.

                 Copyright (C) The OpenMolcas Authors
           For the author list and the recommended citation,
                   consult the file CONTRIBUTORS.md

           *************************************************
           * pymolcas version py2.29                       *
           *   build 2ba4516c4d154a59cba941070ba63e2c      *
           *   (after the EMIL interpreter by V. Veryazov) *
           *************************************************

configuration info
------------------
Host name: iftia91.univ.gda.pl (Linux)
C Compiler ID: GNU
C flags: -std=gnu99
Fortran Compiler ID: GNU
Fortran flags: -cpp -fdefault-integer-8 -fmax-stack-var-size=1048576
Definitions: _MOLCAS_;_I8_;_LINUX_
Parallel: OFF (GA=OFF)


   --------------------------------------------------------------------
  |
  |           Project: O2
  |    Submitted from: /scratch/tecumseh/WorkSpace/O2.0.5750
  |      Scratch area: /scratch/tecumseh/WorkSpace/O2.0.5750
  |   Save outputs to: WORKDIR
  |            Molcas: /home/tecumseh/program/OpenMolcas/build
  |
  | Scratch area is NOT empty
  |
  |    MOLCAS_DRIVER = /home/tecumseh/program/OpenMolcas/build/pymolcas
  |    MOLCAS_NPROCS = 1
  |    MOLCAS_SOURCE = /home/tecumseh/program/OpenMolcas/OpenMolcas
  | MOLCAS_STRUCTURE = 0
  |
   --------------------------------------------------------------------

++ ---------   Input file   ---------

>>> COPY $dir/vectors/$Project.$R.1Ag-12S.JobIph $WorkDir/JOBIPH

>>> COPY $dir/vectors/$Project.$R.3Ag-3S.JobIph $WorkDir/JOBIPH01

>>> COPY $dir/vectors/$Project.$R.5Ag-3S.JobIph $WorkDir/JOBIPH02

>>> COPY $dir/vectors/$Project.$R.1B3u-5S.JobIph $WorkDir/JOBIPH03

>>> COPY $dir/vectors/$Project.$R.3B3u-6S.JobIph $WorkDir/JOBIPH04

>>> COPY $dir/vectors/$Project.$R.5B3u-1S.JobIph $WorkDir/JOBIPH05

>>> COPY $dir/vectors/$Project.$R.1B2u-5S.JobIph $WorkDir/JOBIPH06

>>> COPY $dir/vectors/$Project.$R.3B2u-6S.JobIph $WorkDir/JOBIPH07

>>> COPY $dir/vectors/$Project.$R.5B2u-1S.JobIph $WorkDir/JOBIPH08

>>> COPY $dir/vectors/$Project.$R.1B1g-5S.JobIph $WorkDir/JOBIPH09

>>> COPY $dir/vectors/$Project.$R.3B1g-6S.JobIph $WorkDir/JOBIPH10

>>> COPY $dir/vectors/$Project.$R.5B1g-1S.JobIph $WorkDir/JOBIPH11

>>> COPY $dir/vectors/$Project.$R.1B1u-3S.JobIph $WorkDir/JOBIPH12

>>> COPY $dir/vectors/$Project.$R.3B1u-6S.JobIph $WorkDir/JOBIPH13

>>> COPY $dir/vectors/$Project.$R.1B2g-5S.JobIph $WorkDir/JOBIPH14

>>> COPY $dir/vectors/$Project.$R.3B2g-6S.JobIph $WorkDir/JOBIPH15

>>> COPY $dir/vectors/$Project.$R.5B2g-1S.JobIph $WorkDir/JOBIPH16

>>> COPY $dir/vectors/$Project.$R.1B3g-5S.JobIph $WorkDir/JOBIPH17

>>> COPY $dir/vectors/$Project.$R.3B3g-6S.JobIph $WorkDir/JOBIPH18

>>> COPY $dir/vectors/$Project.$R.5B3g-1S.JobIph $WorkDir/JOBIPH19

>>> COPY $dir/vectors/$Project.$R.1Au-5S.JobIph $WorkDir/JOBIPH20

>>> COPY $dir/vectors/$Project.$R.3Au-6S.JobIph $WorkDir/JOBIPH21

>>> COPY $dir/vectors/$Project.$R.5Au-1S.JobIph $WorkDir/JOBIPH22

&RASSI

OMEGa
NROF=23 12 3 3 5 6 1 5 6 1 5 6 1 3 6 5 6 1 5 6 1 5 6 1
1 2 3 4 5 6 7 8 9 10 11 12
1 2 3
1 2 3
1 2 3 4 5
1 2 3 4 5 6
1
1 2 3 4 5
1 2 3 4 5 6
1
1 2 3 4 5
1 2 3 4 5 6
1
1 2 3
1 2 3 4 5 6
1 2 3 4 5
1 2 3 4 5 6
1
1 2 3 4 5
1 2 3 4 5 6
1
1 2 3 4 5
1 2 3 4 5 6
1
EJOB

-- ----------------------------------

>>> COPY /home/tecumseh/project/molecule/O2/OpenMolcas/vectors/O2.0.5750.1Ag-12S.JobIph /scratch/tecumseh/WorkSpace/O2.0.5750/JOBIPH

>>> COPY /home/tecumseh/project/molecule/O2/OpenMolcas/vectors/O2.0.5750.3Ag-3S.JobIph /scratch/tecumseh/WorkSpace/O2.0.5750/JOBIPH01

>>> COPY /home/tecumseh/project/molecule/O2/OpenMolcas/vectors/O2.0.5750.5Ag-3S.JobIph /scratch/tecumseh/WorkSpace/O2.0.5750/JOBIPH02

>>> COPY /home/tecumseh/project/molecule/O2/OpenMolcas/vectors/O2.0.5750.1B3u-5S.JobIph /scratch/tecumseh/WorkSpace/O2.0.5750/JOBIPH03

>>> COPY /home/tecumseh/project/molecule/O2/OpenMolcas/vectors/O2.0.5750.3B3u-6S.JobIph /scratch/tecumseh/WorkSpace/O2.0.5750/JOBIPH04

>>> COPY /home/tecumseh/project/molecule/O2/OpenMolcas/vectors/O2.0.5750.5B3u-1S.JobIph /scratch/tecumseh/WorkSpace/O2.0.5750/JOBIPH05

>>> COPY /home/tecumseh/project/molecule/O2/OpenMolcas/vectors/O2.0.5750.1B2u-5S.JobIph /scratch/tecumseh/WorkSpace/O2.0.5750/JOBIPH06

>>> COPY /home/tecumseh/project/molecule/O2/OpenMolcas/vectors/O2.0.5750.3B2u-6S.JobIph /scratch/tecumseh/WorkSpace/O2.0.5750/JOBIPH07

>>> COPY /home/tecumseh/project/molecule/O2/OpenMolcas/vectors/O2.0.5750.5B2u-1S.JobIph /scratch/tecumseh/WorkSpace/O2.0.5750/JOBIPH08

>>> COPY /home/tecumseh/project/molecule/O2/OpenMolcas/vectors/O2.0.5750.1B1g-5S.JobIph /scratch/tecumseh/WorkSpace/O2.0.5750/JOBIPH09

>>> COPY /home/tecumseh/project/molecule/O2/OpenMolcas/vectors/O2.0.5750.3B1g-6S.JobIph /scratch/tecumseh/WorkSpace/O2.0.5750/JOBIPH10

>>> COPY /home/tecumseh/project/molecule/O2/OpenMolcas/vectors/O2.0.5750.5B1g-1S.JobIph /scratch/tecumseh/WorkSpace/O2.0.5750/JOBIPH11

>>> COPY /home/tecumseh/project/molecule/O2/OpenMolcas/vectors/O2.0.5750.1B1u-3S.JobIph /scratch/tecumseh/WorkSpace/O2.0.5750/JOBIPH12

>>> COPY /home/tecumseh/project/molecule/O2/OpenMolcas/vectors/O2.0.5750.3B1u-6S.JobIph /scratch/tecumseh/WorkSpace/O2.0.5750/JOBIPH13

>>> COPY /home/tecumseh/project/molecule/O2/OpenMolcas/vectors/O2.0.5750.1B2g-5S.JobIph /scratch/tecumseh/WorkSpace/O2.0.5750/JOBIPH14

>>> COPY /home/tecumseh/project/molecule/O2/OpenMolcas/vectors/O2.0.5750.3B2g-6S.JobIph /scratch/tecumseh/WorkSpace/O2.0.5750/JOBIPH15

>>> COPY /home/tecumseh/project/molecule/O2/OpenMolcas/vectors/O2.0.5750.5B2g-1S.JobIph /scratch/tecumseh/WorkSpace/O2.0.5750/JOBIPH16

>>> COPY /home/tecumseh/project/molecule/O2/OpenMolcas/vectors/O2.0.5750.1B3g-5S.JobIph /scratch/tecumseh/WorkSpace/O2.0.5750/JOBIPH17

>>> COPY /home/tecumseh/project/molecule/O2/OpenMolcas/vectors/O2.0.5750.3B3g-6S.JobIph /scratch/tecumseh/WorkSpace/O2.0.5750/JOBIPH18

>>> COPY /home/tecumseh/project/molecule/O2/OpenMolcas/vectors/O2.0.5750.5B3g-1S.JobIph /scratch/tecumseh/WorkSpace/O2.0.5750/JOBIPH19

>>> COPY /home/tecumseh/project/molecule/O2/OpenMolcas/vectors/O2.0.5750.1Au-5S.JobIph /scratch/tecumseh/WorkSpace/O2.0.5750/JOBIPH20

>>> COPY /home/tecumseh/project/molecule/O2/OpenMolcas/vectors/O2.0.5750.3Au-6S.JobIph /scratch/tecumseh/WorkSpace/O2.0.5750/JOBIPH21

>>> COPY /home/tecumseh/project/molecule/O2/OpenMolcas/vectors/O2.0.5750.5Au-1S.JobIph /scratch/tecumseh/WorkSpace/O2.0.5750/JOBIPH22

--- Start Module: rassi at Thu Apr 17 10:50:08 2025 ---

()()()()()()()()()()()()()()()()()()()()()()()()()()()()()()()()()()()()()()()()()()()()()()()()()()

                                               &RASSI

                                   only a single process is used
                       available to each process: 2.0 GB of memory, 1 thread?
                                            pid: 297731
()()()()()()()()()()()()()()()()()()()()()()()()()()()()()()()()()()()()()()()()()()()()()()()()()()


      ********************************************************************************
      *                                                                              *
      *                             General data section                             *
      *                                                                              *
      ********************************************************************************

   Specific data for JOBIPH file JOBIPH
   -------------------------------------

   Header from SEWARD:
                            O2, D2h symmetry, aug-cc-pVTZ                      
        Integrals generated by Gateway/Seward, Wed Apr 16 15:36:02 2025        

   CASSCF title (first line only):
       O2, 1Ag 12S                                                             

  STATE IRREP:                1
  SPIN MULTIPLICITY:          1
  ACTIVE ELECTRONS:          12
  MAX RAS1 HOLES:             0
  MAX RAS3 ELECTRONS:         0
  NR OF CONFIG:              60

   Specific data for JOBIPH file JOBIPH01
   -------------------------------------

   Header from SEWARD:
                            O2, D2h symmetry, aug-cc-pVTZ                      
        Integrals generated by Gateway/Seward, Wed Apr 16 15:36:02 2025        

   CASSCF title (first line only):
       O2, 3Ag  3S                                                             

  STATE IRREP:                1
  SPIN MULTIPLICITY:          3
  ACTIVE ELECTRONS:          12
  MAX RAS1 HOLES:             0
  MAX RAS3 ELECTRONS:         0
  NR OF CONFIG:              42

   Specific data for JOBIPH file JOBIPH02
   -------------------------------------

   Header from SEWARD:
                            O2, D2h symmetry, aug-cc-pVTZ                      
        Integrals generated by Gateway/Seward, Wed Apr 16 15:36:02 2025        

   CASSCF title (first line only):
       O2, 5Ag  3S                                                             

  STATE IRREP:                1
  SPIN MULTIPLICITY:          5
  ACTIVE ELECTRONS:          12
  MAX RAS1 HOLES:             0
  MAX RAS3 ELECTRONS:         0
  NR OF CONFIG:              10

   Specific data for JOBIPH file JOBIPH03
   -------------------------------------

   Header from SEWARD:
                            O2, D2h symmetry, aug-cc-pVTZ                      
        Integrals generated by Gateway/Seward, Thu Apr 17 10:49:58 2025        

   CASSCF title (first line only):
       O2, 1B3u 5S                                                             

  STATE IRREP:                2
  SPIN MULTIPLICITY:          1
  ACTIVE ELECTRONS:          12
  MAX RAS1 HOLES:             0
  MAX RAS3 ELECTRONS:         0
  NR OF CONFIG:              40

   Specific data for JOBIPH file JOBIPH04
   -------------------------------------

   Header from SEWARD:
                            O2, D2h symmetry, aug-cc-pVTZ                      
        Integrals generated by Gateway/Seward, Wed Apr 16 15:36:02 2025        

   CASSCF title (first line only):
       O2, 3B3u 6S                                                             

  STATE IRREP:                2
  SPIN MULTIPLICITY:          3
  ACTIVE ELECTRONS:          12
  MAX RAS1 HOLES:             0
  MAX RAS3 ELECTRONS:         0
  NR OF CONFIG:              48

   Specific data for JOBIPH file JOBIPH05
   -------------------------------------

   Header from SEWARD:
                            O2, D2h symmetry, aug-cc-pVTZ                      
        Integrals generated by Gateway/Seward, Wed Apr 16 15:36:02 2025        

   CASSCF title (first line only):
       O2, 5B3u 1S                                                             

  STATE IRREP:                2
  SPIN MULTIPLICITY:          5
  ACTIVE ELECTRONS:          12
  MAX RAS1 HOLES:             0
  MAX RAS3 ELECTRONS:         0
  NR OF CONFIG:               8

   Specific data for JOBIPH file JOBIPH06
   -------------------------------------

   Header from SEWARD:
                            O2, D2h symmetry, aug-cc-pVTZ                      
        Integrals generated by Gateway/Seward, Thu Apr 17 10:49:58 2025        

   CASSCF title (first line only):
       O2, 1B2u 5S                                                             

  STATE IRREP:                3
  SPIN MULTIPLICITY:          1
  ACTIVE ELECTRONS:          12
  MAX RAS1 HOLES:             0
  MAX RAS3 ELECTRONS:         0
  NR OF CONFIG:              40

   Specific data for JOBIPH file JOBIPH07
   -------------------------------------

   Header from SEWARD:
                            O2, D2h symmetry, aug-cc-pVTZ                      
        Integrals generated by Gateway/Seward, Wed Apr 16 15:36:02 2025        

   CASSCF title (first line only):
       O2, 3B2u 6S                                                             

  STATE IRREP:                3
  SPIN MULTIPLICITY:          3
  ACTIVE ELECTRONS:          12
  MAX RAS1 HOLES:             0
  MAX RAS3 ELECTRONS:         0
  NR OF CONFIG:              48

   Specific data for JOBIPH file JOBIPH08
   -------------------------------------

   Header from SEWARD:
                            O2, D2h symmetry, aug-cc-pVTZ                      
        Integrals generated by Gateway/Seward, Wed Apr 16 15:36:02 2025        

   CASSCF title (first line only):
       O2, 5B2u 1S                                                             

  STATE IRREP:                3
  SPIN MULTIPLICITY:          5
  ACTIVE ELECTRONS:          12
  MAX RAS1 HOLES:             0
  MAX RAS3 ELECTRONS:         0
  NR OF CONFIG:               8

   Specific data for JOBIPH file JOBIPH09
   -------------------------------------

   Header from SEWARD:
                            O2, D2h symmetry, aug-cc-pVTZ                      
        Integrals generated by Gateway/Seward, Wed Apr 16 15:36:02 2025        

   CASSCF title (first line only):
       O2, 1B1g 5S                                                             

  STATE IRREP:                4
  SPIN MULTIPLICITY:          1
  ACTIVE ELECTRONS:          12
  MAX RAS1 HOLES:             0
  MAX RAS3 ELECTRONS:         0
  NR OF CONFIG:              36

   Specific data for JOBIPH file JOBIPH10
   -------------------------------------

   Header from SEWARD:
                            O2, D2h symmetry, aug-cc-pVTZ                      
        Integrals generated by Gateway/Seward, Wed Apr 16 15:36:02 2025        

   CASSCF title (first line only):
       O2, 3B1g 6S                                                             

  STATE IRREP:                4
  SPIN MULTIPLICITY:          3
  ACTIVE ELECTRONS:          12
  MAX RAS1 HOLES:             0
  MAX RAS3 ELECTRONS:         0
  NR OF CONFIG:              48

   Specific data for JOBIPH file JOBIPH11
   -------------------------------------

   Header from SEWARD:
                            O2, D2h symmetry, aug-cc-pVTZ                      
        Integrals generated by Gateway/Seward, Wed Apr 16 15:36:02 2025        

   CASSCF title (first line only):
       O2, 5B1g 1S                                                             

  STATE IRREP:                4
  SPIN MULTIPLICITY:          5
  ACTIVE ELECTRONS:          12
  MAX RAS1 HOLES:             0
  MAX RAS3 ELECTRONS:         0
  NR OF CONFIG:              12

   Specific data for JOBIPH file JOBIPH12
   -------------------------------------

   Header from SEWARD:
                            O2, D2h symmetry, aug-cc-pVTZ                      
        Integrals generated by Gateway/Seward, Thu Apr 17 10:49:58 2025        

   CASSCF title (first line only):
       O2, 1B1u 3S                                                             

  STATE IRREP:                5
  SPIN MULTIPLICITY:          1
  ACTIVE ELECTRONS:          12
  MAX RAS1 HOLES:             0
  MAX RAS3 ELECTRONS:         0
  NR OF CONFIG:              44

   Specific data for JOBIPH file JOBIPH13
   -------------------------------------

   Header from SEWARD:
                            O2, D2h symmetry, aug-cc-pVTZ                      
        Integrals generated by Gateway/Seward, Wed Apr 16 15:36:02 2025        

   CASSCF title (first line only):
       O2, 3B1u 6S                                                             

  STATE IRREP:                5
  SPIN MULTIPLICITY:          3
  ACTIVE ELECTRONS:          12
  MAX RAS1 HOLES:             0
  MAX RAS3 ELECTRONS:         0
  NR OF CONFIG:              48

   Specific data for JOBIPH file JOBIPH14
   -------------------------------------

   Header from SEWARD:
                            O2, D2h symmetry, aug-cc-pVTZ                      
        Integrals generated by Gateway/Seward, Wed Apr 16 15:36:02 2025        

   CASSCF title (first line only):
       O2, 1B2g 5S                                                             

  STATE IRREP:                6
  SPIN MULTIPLICITY:          1
  ACTIVE ELECTRONS:          12
  MAX RAS1 HOLES:             0
  MAX RAS3 ELECTRONS:         0
  NR OF CONFIG:              40

   Specific data for JOBIPH file JOBIPH15
   -------------------------------------

   Header from SEWARD:
                            O2, D2h symmetry, aug-cc-pVTZ                      
        Integrals generated by Gateway/Seward, Wed Apr 16 15:36:02 2025        

   CASSCF title (first line only):
       O2, 3B2g 6S                                                             

  STATE IRREP:                6
  SPIN MULTIPLICITY:          3
  ACTIVE ELECTRONS:          12
  MAX RAS1 HOLES:             0
  MAX RAS3 ELECTRONS:         0
  NR OF CONFIG:              48

   Specific data for JOBIPH file JOBIPH16
   -------------------------------------

   Header from SEWARD:
                            O2, D2h symmetry, aug-cc-pVTZ                      
        Integrals generated by Gateway/Seward, Wed Apr 16 15:36:02 2025        

   CASSCF title (first line only):
       O2, 5B2g 1S                                                             

  STATE IRREP:                6
  SPIN MULTIPLICITY:          5
  ACTIVE ELECTRONS:          12
  MAX RAS1 HOLES:             0
  MAX RAS3 ELECTRONS:         0
  NR OF CONFIG:               8

   Specific data for JOBIPH file JOBIPH17
   -------------------------------------

   Header from SEWARD:
                            O2, D2h symmetry, aug-cc-pVTZ                      
        Integrals generated by Gateway/Seward, Wed Apr 16 15:36:02 2025        

   CASSCF title (first line only):
       O2, 1B3g 5S                                                             

  STATE IRREP:                7
  SPIN MULTIPLICITY:          1
  ACTIVE ELECTRONS:          12
  MAX RAS1 HOLES:             0
  MAX RAS3 ELECTRONS:         0
  NR OF CONFIG:              40

   Specific data for JOBIPH file JOBIPH18
   -------------------------------------

   Header from SEWARD:
                            O2, D2h symmetry, aug-cc-pVTZ                      
        Integrals generated by Gateway/Seward, Wed Apr 16 15:36:02 2025        

   CASSCF title (first line only):
       O2, 3B3g 6S                                                             

  STATE IRREP:                7
  SPIN MULTIPLICITY:          3
  ACTIVE ELECTRONS:          12
  MAX RAS1 HOLES:             0
  MAX RAS3 ELECTRONS:         0
  NR OF CONFIG:              48

   Specific data for JOBIPH file JOBIPH19
   -------------------------------------

   Header from SEWARD:
                            O2, D2h symmetry, aug-cc-pVTZ                      
        Integrals generated by Gateway/Seward, Wed Apr 16 15:36:02 2025        

   CASSCF title (first line only):
       O2, 5B3g 1S                                                             

  STATE IRREP:                7
  SPIN MULTIPLICITY:          5
  ACTIVE ELECTRONS:          12
  MAX RAS1 HOLES:             0
  MAX RAS3 ELECTRONS:         0
  NR OF CONFIG:               8

   Specific data for JOBIPH file JOBIPH20
   -------------------------------------

   Header from SEWARD:
                            O2, D2h symmetry, aug-cc-pVTZ                      
        Integrals generated by Gateway/Seward, Thu Apr 17 10:49:58 2025        

   CASSCF title (first line only):
       O2, 1Au 5S                                                              

  STATE IRREP:                8
  SPIN MULTIPLICITY:          1
  ACTIVE ELECTRONS:          12
  MAX RAS1 HOLES:             0
  MAX RAS3 ELECTRONS:         0
  NR OF CONFIG:              36

   Specific data for JOBIPH file JOBIPH21
   -------------------------------------

   Header from SEWARD:
                            O2, D2h symmetry, aug-cc-pVTZ                      
        Integrals generated by Gateway/Seward, Wed Apr 16 15:36:02 2025        

   CASSCF title (first line only):
       O2, 3Au 6S                                                              

  STATE IRREP:                8
  SPIN MULTIPLICITY:          3
  ACTIVE ELECTRONS:          12
  MAX RAS1 HOLES:             0
  MAX RAS3 ELECTRONS:         0
  NR OF CONFIG:              48

   Specific data for JOBIPH file JOBIPH22
   -------------------------------------

   Header from SEWARD:
                            O2, D2h symmetry, aug-cc-pVTZ                      
        Integrals generated by Gateway/Seward, Wed Apr 16 15:36:02 2025        

   CASSCF title (first line only):
       O2, 5Au 1S                                                              

  STATE IRREP:                8
  SPIN MULTIPLICITY:          5
  ACTIVE ELECTRONS:          12
  MAX RAS1 HOLES:             0
  MAX RAS3 ELECTRONS:         0
  NR OF CONFIG:              12
 ###############################################################################
 ###############################################################################
 ###                                                                         ###
 ###                                                                         ###
 ###    WARNING: EJOB used when HEFF is available, possible                  ###
 ###    extra interaction between states is ignored!                         ###
 ###                                                                         ###
 ###                                                                         ###
 ###############################################################################
 ###############################################################################

   The following data are common to all the states:
   ------------------------------------------------
   (note: frozen counts as inactive, deleted as secondary)

      Nr of irreps: 8

                 Total     No./Irrep 
      Irrep                  1   2   3   4   5   6   7   8
                            ag b3u b2u b1g b1u b2g b3g  au

      INACTIVE       2       1   0   0   0   1   0   0   0
      ACTIVE         8       2   1   1   0   2   1   1   0
      SECONDARY     82      16  10  10   5  16  10  10   5
      BASIS         92      19  11  11   5  19  11  11   5

      RAS1           0       0   0   0   0   0   0   0   0
      RAS2           8       2   1   1   0   2   1   1   0
      RAS3           0       0   0   0   0   0   0   0   0

        MATRIX ELEMENTS WILL BE COMPUTED FOR THE FOLLOWING ONE-ELECTRON OPERATORS, UNLESS ZERO BY SYMMETRY.
   (Herm=Hermitian, Anti=Antihermitian, Sing=Singlet operator, Trip=Triplet operator)
     MLTPL  0   1 (HERMSING)     MLTPL  1   1 (HERMSING)     MLTPL  1   2 (HERMSING)
     MLTPL  1   3 (HERMSING)     MLTPL  2   1 (HERMSING)     MLTPL  2   2 (HERMSING)
     MLTPL  2   3 (HERMSING)     MLTPL  2   4 (HERMSING)     MLTPL  2   5 (HERMSING)
     MLTPL  2   6 (HERMSING)     VELOCITY   1 (ANTISING)     VELOCITY   2 (ANTISING)
     VELOCITY   3 (ANTISING)     ANGMOM     1 (ANTISING)     ANGMOM     2 (ANTISING)
     ANGMOM     3 (ANTISING)     MLTPV  2   1 (ANTISING)     MLTPV  2   2 (ANTISING)
     MLTPV  2   3 (ANTISING)     MLTPV  2   4 (ANTISING)     MLTPV  2   5 (ANTISING)
     MLTPV  2   6 (ANTISING)

       EIGENSTATES OF A SPIN-FREE HAMILTONIAN WILL BE COMPUTED BASED ON:

  a Hamiltonian matrix assumed to be diagonal with energies read from the wavefunction file(s).

  Nr of states:                   99

   State:        1   2   3   4   5   6   7   8   9  10  11  12  13  14  15  16  17  18  19  20
  JobIph:        1   1   1   1   1   1   1   1   1   1   1   1   2   2   2   3   3   3   4   4
 Root nr:        1   2   3   4   5   6   7   8   9  10  11  12   1   2   3   1   2   3   1   2

   State:       21  22  23  24  25  26  27  28  29  30  31  32  33  34  35  36  37  38  39  40
  JobIph:        4   4   4   5   5   5   5   5   5   6   7   7   7   7   7   8   8   8   8   8
 Root nr:        3   4   5   1   2   3   4   5   6   1   1   2   3   4   5   1   2   3   4   5

   State:       41  42  43  44  45  46  47  48  49  50  51  52  53  54  55  56  57  58  59  60
  JobIph:        8   9  10  10  10  10  10  11  11  11  11  11  11  12  13  13  13  14  14  14
 Root nr:        6   1   1   2   3   4   5   1   2   3   4   5   6   1   1   2   3   1   2   3

   State:       61  62  63  64  65  66  67  68  69  70  71  72  73  74  75  76  77  78  79  80
  JobIph:       14  14  14  15  15  15  15  15  16  16  16  16  16  16  17  18  18  18  18  18
 Root nr:        4   5   6   1   2   3   4   5   1   2   3   4   5   6   1   1   2   3   4   5

   State:       81  82  83  84  85  86  87  88  89  90  91  92  93  94  95  96  97  98  99
  JobIph:       19  19  19  19  19  19  20  21  21  21  21  21  22  22  22  22  22  22  23
 Root nr:        1   2   3   4   5   6   1   1   2   3   4   5   1   2   3   4   5   6   1

  HAMILTONIAN MATRIX FOR THE ORIGINAL STATES:

  Diagonal, with energies
   -149.71470993   -149.69316725   -148.99659574   -148.99129674   -148.95473047
   -148.54256742   -148.54172894   -148.46543477   -148.40991238   -148.37080006
   -148.29297824   -148.07720482   -148.60130129   -148.59214104   -148.53243200
   -148.70438517   -148.69933899   -148.08803287   -149.11861624   -149.08381190
   -148.84248484   -148.51945486   -148.46142724   -149.18362385   -149.13485400
   -149.00785346   -148.59002799   -148.55064052   -148.53733032   -148.66007071
   -149.11861624   -149.08381190   -148.84248484   -148.51945486   -148.46142724
   -149.18362385   -149.13485400   -149.00785346   -148.59002799   -148.55064052
   -148.53733032   -148.66007071   -149.71470993   -148.99129674   -148.54172894
   -148.46055106   -148.40991238   -149.75232589   -149.05187137   -148.65896845
   -148.60130129   -148.53243200   -148.52636410   -148.70438517   -149.23488970
   -149.18410426   -148.54505155   -149.48481054   -149.47950918   -148.85460080
   -148.85094043   -148.76708615   -148.27623397   -149.34671463   -148.87039484
   -148.80730946   -148.78734073   -148.68911068   -149.39580576   -148.92761640
   -148.88142842   -148.86672441   -148.85609624   -148.72456307   -149.00426662
   -149.34671463   -148.87039484   -148.80730946   -148.78734073   -148.68911068
   -149.39580576   -148.92761640   -148.88142842   -148.86672441   -148.85609624
   -148.72456307   -149.00426662   -149.49379291   -149.23488970   -148.76624176
   -148.54505155   -148.23717900   -149.48481054   -149.32319781   -148.85460080
   -148.82646359   -148.57859913   -148.30071482   -148.95085711

      OVERLAP MATRIX FOR THE ORIGINAL STATES:

  Diagonal, with elements
      1.00000000      1.00000000      1.00000000      1.00000000      1.00000000
      1.00000000      1.00000000      1.00000000      1.00000000      1.00000000
      1.00000000      1.00000000      1.00000000      1.00000000      1.00000000
      1.00000000      1.00000000      1.00000000      1.00000000      1.00000000
      1.00000000      1.00000000      1.00000000      1.00000000      1.00000000
      1.00000000      1.00000000      1.00000000      1.00000000      1.00000000
      1.00000000      1.00000000      1.00000000      1.00000000      1.00000000
      1.00000000      1.00000000      1.00000000      1.00000000      1.00000000
      1.00000000      1.00000000      1.00000000      1.00000000      1.00000000
      1.00000000      1.00000000      1.00000000      1.00000000      1.00000000
      1.00000000      1.00000000      1.00000000      1.00000000      1.00000000
      1.00000000      1.00000000      1.00000000      1.00000000      1.00000000
      1.00000000      1.00000000      1.00000000      1.00000000      1.00000000
      1.00000000      1.00000000      1.00000000      1.00000000      1.00000000
      1.00000000      1.00000000      1.00000000      1.00000000      1.00000000
      1.00000000      1.00000000      1.00000000      1.00000000      1.00000000
      1.00000000      1.00000000      1.00000000      1.00000000      1.00000000
      1.00000000      1.00000000      1.00000000      1.00000000      1.00000000
      1.00000000      1.00000000      1.00000000      1.00000000      1.00000000
      1.00000000      1.00000000      1.00000000      1.00000000

::    RASSI State    1     Total energy:    -149.71470992995231
::    RASSI State    2     Total energy:    -149.69316724812322
::    RASSI State    3     Total energy:    -148.99659573759575
::    RASSI State    4     Total energy:    -148.99129674268949
::    RASSI State    5     Total energy:    -148.95473046975872
::    RASSI State    6     Total energy:    -148.54256741766292
::    RASSI State    7     Total energy:    -148.54172894096578
::    RASSI State    8     Total energy:    -148.46543477227826
::    RASSI State    9     Total energy:    -148.40991238030014
::    RASSI State   10     Total energy:    -148.37080006431165
::    RASSI State   11     Total energy:    -148.29297823694353
::    RASSI State   12     Total energy:    -148.07720481947675
::    RASSI State   13     Total energy:    -148.60130128636089
::    RASSI State   14     Total energy:    -148.59214104109694
::    RASSI State   15     Total energy:    -148.53243199596929
::    RASSI State   16     Total energy:    -148.70438516602371
::    RASSI State   17     Total energy:    -148.69933898626917
::    RASSI State   18     Total energy:    -148.08803287220090
::    RASSI State   19     Total energy:    -149.11861624153400
::    RASSI State   20     Total energy:    -149.08381190315040
::    RASSI State   21     Total energy:    -148.84248484097543
::    RASSI State   22     Total energy:    -148.51945486054407
::    RASSI State   23     Total energy:    -148.46142724466776
::    RASSI State   24     Total energy:    -149.18362385058967
::    RASSI State   25     Total energy:    -149.13485399982142
::    RASSI State   26     Total energy:    -149.00785345840481
::    RASSI State   27     Total energy:    -148.59002799413423
::    RASSI State   28     Total energy:    -148.55064051608173
::    RASSI State   29     Total energy:    -148.53733032199892
::    RASSI State   30     Total energy:    -148.66007071201369
::    RASSI State   31     Total energy:    -149.11861624153414
::    RASSI State   32     Total energy:    -149.08381190315040
::    RASSI State   33     Total energy:    -148.84248484097540
::    RASSI State   34     Total energy:    -148.51945486054399
::    RASSI State   35     Total energy:    -148.46142724466765
::    RASSI State   36     Total energy:    -149.18362385058967
::    RASSI State   37     Total energy:    -149.13485399982130
::    RASSI State   38     Total energy:    -149.00785345840481
::    RASSI State   39     Total energy:    -148.59002799413437
::    RASSI State   40     Total energy:    -148.55064051608159
::    RASSI State   41     Total energy:    -148.53733032199872
::    RASSI State   42     Total energy:    -148.66007071201375
::    RASSI State   43     Total energy:    -149.71470992995253
::    RASSI State   44     Total energy:    -148.99129674268966
::    RASSI State   45     Total energy:    -148.54172894096575
::    RASSI State   46     Total energy:    -148.46055105626812
::    RASSI State   47     Total energy:    -148.40991238030006
::    RASSI State   48     Total energy:    -149.75232589204620
::    RASSI State   49     Total energy:    -149.05187136933895
::    RASSI State   50     Total energy:    -148.65896844766436
::    RASSI State   51     Total energy:    -148.60130128636089
::    RASSI State   52     Total energy:    -148.53243199596932
::    RASSI State   53     Total energy:    -148.52636410421081
::    RASSI State   54     Total energy:    -148.70438516602366
::    RASSI State   55     Total energy:    -149.23488970059455
::    RASSI State   56     Total energy:    -149.18410426272868
::    RASSI State   57     Total energy:    -148.54505155411320
::    RASSI State   58     Total energy:    -149.48481054238488
::    RASSI State   59     Total energy:    -149.47950918499819
::    RASSI State   60     Total energy:    -148.85460079718459
::    RASSI State   61     Total energy:    -148.85094042912738
::    RASSI State   62     Total energy:    -148.76708614728184
::    RASSI State   63     Total energy:    -148.27623397323774
::    RASSI State   64     Total energy:    -149.34671463133415
::    RASSI State   65     Total energy:    -148.87039484248785
::    RASSI State   66     Total energy:    -148.80730945775207
::    RASSI State   67     Total energy:    -148.78734072835979
::    RASSI State   68     Total energy:    -148.68911068346102
::    RASSI State   69     Total energy:    -149.39580575656998
::    RASSI State   70     Total energy:    -148.92761639825204
::    RASSI State   71     Total energy:    -148.88142841669369
::    RASSI State   72     Total energy:    -148.86672440565479
::    RASSI State   73     Total energy:    -148.85609623893873
::    RASSI State   74     Total energy:    -148.72456307485180
::    RASSI State   75     Total energy:    -149.00426662419761
::    RASSI State   76     Total energy:    -149.34671463133412
::    RASSI State   77     Total energy:    -148.87039484248788
::    RASSI State   78     Total energy:    -148.80730945775207
::    RASSI State   79     Total energy:    -148.78734072835982
::    RASSI State   80     Total energy:    -148.68911068346114
::    RASSI State   81     Total energy:    -149.39580575656998
::    RASSI State   82     Total energy:    -148.92761639825210
::    RASSI State   83     Total energy:    -148.88142841669350
::    RASSI State   84     Total energy:    -148.86672440565474
::    RASSI State   85     Total energy:    -148.85609623893868
::    RASSI State   86     Total energy:    -148.72456307485174
::    RASSI State   87     Total energy:    -149.00426662419775
::    RASSI State   88     Total energy:    -149.49379291435406
::    RASSI State   89     Total energy:    -149.23488970059458
::    RASSI State   90     Total energy:    -148.76624176241720
::    RASSI State   91     Total energy:    -148.54505155411331
::    RASSI State   92     Total energy:    -148.23717900005477
::    RASSI State   93     Total energy:    -149.48481054238493
::    RASSI State   94     Total energy:    -149.32319781443132
::    RASSI State   95     Total energy:    -148.85460079718462
::    RASSI State   96     Total energy:    -148.82646358640105
::    RASSI State   97     Total energy:    -148.57859912885556
::    RASSI State   98     Total energy:    -148.30071482319039
::    RASSI State   99     Total energy:    -148.95085711466697



      ****************************************************************************************************
      *                                                                                                  *
      *                                         Spin-free section                                        *
      *                                                                                                  *
      *                 Note: index according to input order, order according to energy.                 *
      *                                                                                                  *
      ****************************************************************************************************



  SPIN-FREE ENERGIES:
  (Shifted by EMIN (a.u.) =       -149.7523258920)

 SF State       Relative EMIN(au)   Rel lowest level(eV)    D:o, cm**(-1)      L_eff   Abs_M

    48             0.0000000000        0.0000000000              0.0000         1.5     0.0
    43             0.0376159621        1.0235824735           8255.7494         2.3     2.0
     1             0.0376159621        1.0235824736           8255.7494         2.3     2.0
     2             0.0591586439        1.6097887096          12983.8216         1.5     0.0
    88             0.2585329777        7.0350407133          56741.4300         1.2     0.0
    93             0.2675153497        7.2794635064          58712.8328         2.1     2.0
    58             0.2675153497        7.2794635064          58712.8328         2.1     2.0
    59             0.2728167070        7.4237207898          59876.3462         1.1     0.0
    69             0.3565201355        9.7014071109          78247.1253         1.3     1.0
    81             0.3565201355        9.7014071109          78247.1253         1.3     1.0
    64             0.4056112607       11.0372446810          89021.3819         2.4     1.0
    76             0.4056112607       11.0372446810          89021.3819         2.4     1.0
    94             0.4291280776       11.6771698690          94182.7266         1.3     0.0
    89             0.5174361915       14.0801560632         113564.1174         2.1     2.0
    55             0.5174361915       14.0801560632         113564.1174         2.1     2.0
    56             0.5682216293       15.4620982287         124710.2326         1.1     0.0
    24             0.5687020415       15.4751709090         124815.6709         1.9     1.0
    36             0.5687020415       15.4751709090         124815.6709         1.9     1.0
    25             0.6174718922       16.8022661554         135519.4159         1.9     1.0
    37             0.6174718922       16.8022661554         135519.4159         1.9     1.0
    31             0.6337096505       17.2441180679         139083.1919         1.4     1.0
    19             0.6337096505       17.2441180679         139083.1919         1.4     1.0
    32             0.6685139889       18.1911923627         146721.8613         1.4     1.0
    20             0.6685139889       18.1911923627         146721.8613         1.4     1.0
    49             0.7004545227       19.0603385651         153731.9982         0.9     0.0
    26             0.7444724336       20.2581269413         163392.8129         1.2     1.0
    38             0.7444724336       20.2581269413         163392.8129         1.2     1.0
    87             0.7480592678       20.3557296723         164180.0320         1.4     1.0
    75             0.7480592678       20.3557296723         164180.0320         1.4     1.0
     3             0.7557301545       20.5644651305         165863.5971         1.8     0.0
    44             0.7610291494       20.7086581276         167026.5920         1.8     2.0
     4             0.7610291494       20.7086581276         167026.5920         1.8     2.0
     5             0.7975954223       21.7036771039         175051.9613         1.0     0.0
    99             0.8014687774       21.8090764654         175902.0645         0.1     0.0
    82             0.8247094938       22.4414885764         181002.8121         1.5     1.0
    70             0.8247094938       22.4414885764         181002.8121         1.5     1.0
    71             0.8708974754       23.6983275825         191139.9024         2.9     3.0
    83             0.8708974754       23.6983275825         191139.9024         2.9     3.0
    77             0.8819310496       23.9985664319         193561.4920         1.4     1.0
    65             0.8819310496       23.9985664319         193561.4920         1.4     1.0
    72             0.8856014864       24.0984441062         194367.0598         1.2     1.0
    84             0.8856014864       24.0984441062         194367.0598         1.2     1.0
    73             0.8962296531       24.3876512558         196699.6727         1.3     1.0
    85             0.8962296531       24.3876512558         196699.6727         1.3     1.0
    95             0.8977250949       24.4283442990         197027.8843         1.9     2.0
    60             0.8977250949       24.4283442990         197027.8843         1.9     2.0
    61             0.9013854629       24.5279479880         197831.2422         1.0     0.0
    21             0.9098410511       24.7580362631         199687.0293         1.5     1.0
    33             0.9098410511       24.7580362631         199687.0293         1.5     1.0
    96             0.9258623056       25.1939968095         203203.2882         1.3     0.0
    66             0.9450164343       25.7152072024         207407.1335         3.1     3.0
    78             0.9450164343       25.7152072024         207407.1335         3.1     3.0
    79             0.9649851637       26.2585840107         211789.7631         2.0     1.0
    67             0.9649851637       26.2585840107         211789.7631         2.0     1.0
    62             0.9852397448       26.8097392397         216235.1298         1.4     0.0
    90             0.9860841296       26.8327161224         216420.4508         1.6     0.0
    74             1.0277628172       27.9668509879         225567.8654         0.9     1.0
    86             1.0277628172       27.9668509879         225567.8654         0.9     1.0
    16             1.0479407260       28.5159198587         229996.4045         1.9     2.0
    54             1.0479407260       28.5159198587         229996.4045         1.9     2.0
    17             1.0529869058       28.6532334051         231103.9130         0.8     0.0
    80             1.0632152086       28.9315597034         233348.7660         1.3     1.0
    68             1.0632152086       28.9315597034         233348.7660         1.3     1.0
    42             1.0922551800       29.7217775830         239722.3030         0.6     1.0
    30             1.0922551800       29.7217775830         239722.3030         0.6     1.0
    50             1.0933574444       29.7517717240         239964.2221         0.9     0.0
    13             1.1510246057       31.3209751239         252620.7010         2.0     2.0
    51             1.1510246057       31.3209751239         252620.7010         2.0     2.0
    14             1.1601848509       31.5702380959         254631.1425         1.1     0.0
    39             1.1622978979       31.6277370330         255094.9027         1.1     1.0
    27             1.1622978979       31.6277370330         255094.9027         1.1     1.0
    97             1.1737267632       31.9387323004         257603.2487         0.6     0.0
    28             1.2016853760       32.6995249115         263739.4549         2.6     3.0
    40             1.2016853760       32.6995249115         263739.4549         2.6     3.0
    91             1.2072743379       32.8516083144         264966.0903         1.8     2.0
    57             1.2072743379       32.8516083144         264966.0903         1.8     2.0
     6             1.2097584744       32.9192051108         265511.2952         1.2     0.0
     7             1.2105969511       32.9420212241         265695.3196         2.2     2.0
    45             1.2105969511       32.9420212241         265695.3196         2.2     2.0
    29             1.2149955700       33.0617137437         266660.7048         0.9     1.0
    41             1.2149955700       33.0617137437         266660.7048         0.9     1.0
    52             1.2198938961       33.1950039853         267735.7631         2.2     2.0
    15             1.2198938961       33.1950039853         267735.7631         2.2     2.0
    53             1.2259617878       33.3601197316         269067.5115         1.1     0.0
    22             1.2328710315       33.5481298297         270583.9152         1.2     1.0
    34             1.2328710315       33.5481298297         270583.9152         1.2     1.0
     8             1.2868911198       35.0180913165         282439.9541         0.9     0.0
    23             1.2908986474       35.1271416982         283319.5048         2.6     3.0
    35             1.2908986474       35.1271416982         283319.5048         2.6     3.0
    46             1.2917748358       35.1509839992         283511.8059         0.4     0.0
     9             1.3424135117       36.5289325699         294625.7106         2.1     2.0
    47             1.3424135117       36.5289325699         294625.7106         2.1     2.0
    10             1.3815258277       37.5932329073         303209.8718         1.0     0.0
    98             1.4516110689       39.5003494736         318591.8042         1.0     0.0
    11             1.4593476551       39.7108727102         320289.7886         0.8     0.0
    63             1.4760919188       40.1665073373         323964.7297         0.6     0.0
    92             1.5151468920       41.2292472974         332536.3056         1.0     0.0
    18             1.6642930198       45.2877201895         365270.0970         0.4     0.0
    12             1.6751210726       45.5823665145         367646.5799         0.4     0.0

++ Dipole transition strengths (spin-free states):
   -----------------------------------------------
     for osc. strength at least  1.00000000E-05

      From   To        Osc. strength     Einstein coefficients Ax, Ay, Az (sec-1)    Total A (sec-1)
     -----------------------------------------------------------------------------------------------
        48   94       1.87801804E-01  0.00000000E+00  0.00000000E+00  1.11118023E+09  1.11118023E+09
        48   24       7.80048658E-03  0.00000000E+00  8.10591698E+07  0.00000000E+00  8.10591698E+07
        48   36       7.80048658E-03  8.10591698E+07  0.00000000E+00  0.00000000E+00  8.10591698E+07
        48   25       1.11003795E-01  0.00000000E+00  1.35982523E+09  0.00000000E+00  1.35982523E+09
        48   37       1.11003795E-01  1.35982523E+09  0.00000000E+00  0.00000000E+00  1.35982523E+09
        48   26       5.52009478E-02  0.00000000E+00  9.83002585E+08  0.00000000E+00  9.83002585E+08
        48   38       5.52009478E-02  9.83002585E+08  0.00000000E+00  0.00000000E+00  9.83002585E+08
        48   96       7.21731273E-03  0.00000000E+00  0.00000000E+00  1.98782988E+08  1.98782988E+08
        48   39       2.34776550E-04  1.01906176E+07  0.00000000E+00  0.00000000E+00  1.01906176E+07
        48   27       2.34776550E-04  0.00000000E+00  1.01906176E+07  0.00000000E+00  1.01906176E+07
        48   97       1.12775536E+00  0.00000000E+00  0.00000000E+00  4.99183012E+10  4.99183012E+10
        48   29       9.83424608E-04  0.00000000E+00  4.66445968E+07  0.00000000E+00  4.66445968E+07
        48   41       9.83424608E-04  4.66445968E+07  0.00000000E+00  0.00000000E+00  4.66445968E+07
        48   98       5.00986555E-02  0.00000000E+00  0.00000000E+00  3.39185670E+09  3.39185670E+09
        43   89       1.73817510E-01  0.00000000E+00  0.00000000E+00  1.28576475E+09  1.28576475E+09
        43   31       1.89517477E-02  2.16366090E+08  0.00000000E+00  0.00000000E+00  2.16366090E+08
        43   19       1.89517477E-02  0.00000000E+00  2.16366090E+08  0.00000000E+00  2.16366090E+08
        43   32       6.85672363E-02  8.76891512E+08  0.00000000E+00  0.00000000E+00  8.76891512E+08
        43   20       6.85672363E-02  0.00000000E+00  8.76891512E+08  0.00000000E+00  8.76891512E+08
        43   21       1.19259285E-01  0.00000000E+00  2.91514549E+09  0.00000000E+00  2.91514549E+09
        43   33       1.19259285E-01  2.91514549E+09  0.00000000E+00  0.00000000E+00  2.91514549E+09
        43   91       1.12453353E+00  0.00000000E+00  0.00000000E+00  4.94312240E+10  4.94312240E+10
        43   22       4.79208352E-05  0.00000000E+00  2.19966452E+06  0.00000000E+00  2.19966452E+06
        43   34       4.79208352E-05  2.19966452E+06  0.00000000E+00  0.00000000E+00  2.19966452E+06
        43   23       2.56096053E-04  0.00000000E+00  1.29244433E+07  0.00000000E+00  1.29244433E+07
        43   35       2.56096053E-04  1.29244433E+07  0.00000000E+00  0.00000000E+00  1.29244433E+07
         1   55       1.73817510E-01  0.00000000E+00  0.00000000E+00  1.28576475E+09  1.28576475E+09
         1   31       1.89517477E-02  0.00000000E+00  2.16366090E+08  0.00000000E+00  2.16366090E+08
         1   19       1.89517477E-02  2.16366090E+08  0.00000000E+00  0.00000000E+00  2.16366090E+08
         1   32       6.85672363E-02  0.00000000E+00  8.76891512E+08  0.00000000E+00  8.76891512E+08
         1   20       6.85672363E-02  8.76891512E+08  0.00000000E+00  0.00000000E+00  8.76891512E+08
         1   21       1.19259285E-01  2.91514549E+09  0.00000000E+00  0.00000000E+00  2.91514549E+09
         1   33       1.19259285E-01  0.00000000E+00  2.91514549E+09  0.00000000E+00  2.91514549E+09
         1   57       1.12453353E+00  0.00000000E+00  0.00000000E+00  4.94312240E+10  4.94312240E+10
         1   22       4.79208352E-05  2.19966452E+06  0.00000000E+00  0.00000000E+00  2.19966452E+06
         1   34       4.79208352E-05  0.00000000E+00  2.19966452E+06  0.00000000E+00  2.19966452E+06
         1   23       2.56096053E-04  1.29244433E+07  0.00000000E+00  0.00000000E+00  1.29244433E+07
         1   35       2.56096053E-04  0.00000000E+00  1.29244433E+07  0.00000000E+00  1.29244433E+07
         2   56       1.71290977E-01  0.00000000E+00  0.00000000E+00  1.42622620E+09  1.42622620E+09
         2   31       7.35180634E-02  0.00000000E+00  7.79762097E+08  0.00000000E+00  7.79762097E+08
         2   19       7.35180634E-02  7.79762097E+08  0.00000000E+00  0.00000000E+00  7.79762097E+08
         2   32       1.05060420E-02  0.00000000E+00  1.25340454E+08  0.00000000E+00  1.25340454E+08
         2   20       1.05060420E-02  1.25340454E+08  0.00000000E+00  0.00000000E+00  1.25340454E+08
         2   21       7.40687659E-02  1.72218933E+09  0.00000000E+00  0.00000000E+00  1.72218933E+09
         2   33       7.40687659E-02  0.00000000E+00  1.72218933E+09  0.00000000E+00  1.72218933E+09
         2   22       7.39926145E-04  3.27508543E+07  0.00000000E+00  0.00000000E+00  3.27508543E+07
         2   34       7.39926145E-04  0.00000000E+00  3.27508543E+07  0.00000000E+00  3.27508543E+07
        88   64       6.26396418E-03  0.00000000E+00  4.35368748E+06  0.00000000E+00  4.35368748E+06
        88   76       6.26396418E-03  4.35368748E+06  0.00000000E+00  0.00000000E+00  4.35368748E+06
        88   77       2.71080090E-03  3.38484989E+07  0.00000000E+00  0.00000000E+00  3.38484989E+07
        88   65       2.71080090E-03  0.00000000E+00  3.38484989E+07  0.00000000E+00  3.38484989E+07
        88   79       3.27028585E-02  5.24399349E+08  0.00000000E+00  0.00000000E+00  5.24399349E+08
        88   67       3.27028585E-02  0.00000000E+00  5.24399349E+08  0.00000000E+00  5.24399349E+08
        88   80       1.41093867E-01  2.93540374E+09  0.00000000E+00  0.00000000E+00  2.93540374E+09
        88   68       1.41093867E-01  0.00000000E+00  2.93540374E+09  0.00000000E+00  2.93540374E+09
        88   46       8.28730663E-02  0.00000000E+00  0.00000000E+00  2.84268197E+09  2.84268197E+09
        93   69       3.03868949E-03  0.00000000E+00  7.73435186E+05  0.00000000E+00  7.73435186E+05
        93   81       3.03868949E-03  7.73435186E+05  0.00000000E+00  0.00000000E+00  7.73435186E+05
        93   82       1.97249093E-04  1.96760983E+06  0.00000000E+00  0.00000000E+00  1.96760983E+06
        93   70       1.97249093E-04  0.00000000E+00  1.96760983E+06  0.00000000E+00  1.96760983E+06
        93   71       3.14292202E-03  0.00000000E+00  3.67645598E+07  0.00000000E+00  3.67645598E+07
        93   83       3.14292202E-03  3.67645598E+07  0.00000000E+00  0.00000000E+00  3.67645598E+07
        93   72       2.21209097E-03  0.00000000E+00  2.71526281E+07  0.00000000E+00  2.71526281E+07
        93   84       2.21209097E-03  2.71526281E+07  0.00000000E+00  0.00000000E+00  2.71526281E+07
        93   73       1.11649468E-02  0.00000000E+00  1.41799344E+08  0.00000000E+00  1.41799344E+08
        93   85       1.11649468E-02  1.41799344E+08  0.00000000E+00  0.00000000E+00  1.41799344E+08
        93   74       8.86306537E-02  0.00000000E+00  1.64590513E+09  0.00000000E+00  1.64590513E+09
        93   86       8.86306537E-02  1.64590513E+09  0.00000000E+00  0.00000000E+00  1.64590513E+09
        93   51       1.11547054E-02  0.00000000E+00  0.00000000E+00  2.79763592E+08  2.79763592E+08
        93   52       6.48692613E-03  0.00000000E+00  0.00000000E+00  1.89046675E+08  1.89046675E+08
        58   69       3.03868949E-03  7.73435186E+05  0.00000000E+00  0.00000000E+00  7.73435186E+05
        58   81       3.03868949E-03  0.00000000E+00  7.73435186E+05  0.00000000E+00  7.73435186E+05
        58   82       1.97249093E-04  0.00000000E+00  1.96760984E+06  0.00000000E+00  1.96760984E+06
        58   70       1.97249093E-04  1.96760983E+06  0.00000000E+00  0.00000000E+00  1.96760983E+06
        58   71       3.14292202E-03  3.67645598E+07  0.00000000E+00  0.00000000E+00  3.67645598E+07
        58   83       3.14292202E-03  0.00000000E+00  3.67645598E+07  0.00000000E+00  3.67645598E+07
        58   72       2.21209097E-03  2.71526281E+07  0.00000000E+00  0.00000000E+00  2.71526281E+07
        58   84       2.21209097E-03  0.00000000E+00  2.71526281E+07  0.00000000E+00  2.71526281E+07
        58   73       1.11649468E-02  1.41799344E+08  0.00000000E+00  0.00000000E+00  1.41799344E+08
        58   85       1.11649468E-02  0.00000000E+00  1.41799344E+08  0.00000000E+00  1.41799344E+08
        58   74       8.86306537E-02  1.64590513E+09  0.00000000E+00  0.00000000E+00  1.64590513E+09
        58   86       8.86306537E-02  0.00000000E+00  1.64590513E+09  0.00000000E+00  1.64590513E+09
        58   13       1.11547054E-02  0.00000000E+00  0.00000000E+00  2.79763592E+08  2.79763592E+08
        58   15       6.48692613E-03  0.00000000E+00  0.00000000E+00  1.89046675E+08  1.89046675E+08
        59   69       2.88202178E-03  6.48775789E+05  0.00000000E+00  0.00000000E+00  6.48775789E+05
        59   81       2.88202178E-03  0.00000000E+00  6.48775789E+05  0.00000000E+00  6.48775789E+05
        59   82       5.11570080E-03  0.00000000E+00  5.00639895E+07  0.00000000E+00  5.00639895E+07
        59   70       5.11570080E-03  5.00639895E+07  0.00000000E+00  0.00000000E+00  5.00639895E+07
        59   72       1.27154851E-02  1.53412149E+08  0.00000000E+00  0.00000000E+00  1.53412149E+08
        59   84       1.27154851E-02  0.00000000E+00  1.53412149E+08  0.00000000E+00  1.53412149E+08
        59   73       3.54416400E-04  4.42564248E+06  0.00000000E+00  0.00000000E+00  4.42564248E+06
        59   85       3.54416400E-04  0.00000000E+00  4.42564248E+06  0.00000000E+00  4.42564248E+06
        59   74       8.37847521E-02  1.53429114E+09  0.00000000E+00  0.00000000E+00  1.53429114E+09
        59   86       8.37847521E-02  0.00000000E+00  1.53429114E+09  0.00000000E+00  1.53429114E+09
        59   14       9.72445564E-03  0.00000000E+00  0.00000000E+00  2.46027611E+08  2.46027611E+08
        69   94       5.04134317E-04  0.00000000E+00  8.53936153E+04  0.00000000E+00  8.53936153E+04
        69   24       9.99204226E-03  0.00000000E+00  0.00000000E+00  1.44537932E+07  1.44537932E+07
        69   25       1.61049217E-02  0.00000000E+00  0.00000000E+00  3.52362717E+07  3.52362717E+07
        69   26       3.03858994E-01  0.00000000E+00  0.00000000E+00  1.46939865E+09  1.46939865E+09
        69   95       3.85506947E-03  0.00000000E+00  3.62799456E+07  0.00000000E+00  3.62799456E+07
        69   60       3.85506947E-03  3.62799456E+07  0.00000000E+00  0.00000000E+00  3.62799456E+07
        69   61       1.60045291E-02  1.52662415E+08  0.00000000E+00  0.00000000E+00  1.52662415E+08
        69   96       1.13619200E-02  0.00000000E+00  1.18333938E+08  0.00000000E+00  1.18333938E+08
        69   62       1.65798689E-01  2.10574601E+09  0.00000000E+00  0.00000000E+00  2.10574601E+09
        69   27       8.92484154E-04  0.00000000E+00  0.00000000E+00  1.86183827E+07  1.86183827E+07
        69   97       6.87675269E-03  0.00000000E+00  1.47556399E+08  0.00000000E+00  1.47556399E+08
        69   29       2.33511386E-04  0.00000000E+00  0.00000000E+00  5.52935774E+06  5.52935774E+06
        81   94       5.04134317E-04  8.53936153E+04  0.00000000E+00  0.00000000E+00  8.53936153E+04
        81   36       9.99204226E-03  0.00000000E+00  0.00000000E+00  1.44537932E+07  1.44537932E+07
        81   37       1.61049217E-02  0.00000000E+00  0.00000000E+00  3.52362717E+07  3.52362717E+07
        81   38       3.03858994E-01  0.00000000E+00  0.00000000E+00  1.46939865E+09  1.46939865E+09
        81   95       3.85506947E-03  3.62799456E+07  0.00000000E+00  0.00000000E+00  3.62799456E+07
        81   60       3.85506947E-03  0.00000000E+00  3.62799456E+07  0.00000000E+00  3.62799456E+07
        81   61       1.60045291E-02  0.00000000E+00  1.52662415E+08  0.00000000E+00  1.52662415E+08
        81   96       1.13619200E-02  1.18333938E+08  0.00000000E+00  0.00000000E+00  1.18333938E+08
        81   62       1.65798689E-01  0.00000000E+00  2.10574601E+09  0.00000000E+00  2.10574601E+09
        81   39       8.92484154E-04  0.00000000E+00  0.00000000E+00  1.86183827E+07  1.86183827E+07
        81   97       6.87675269E-03  1.47556399E+08  0.00000000E+00  0.00000000E+00  1.47556399E+08
        81   41       2.33511386E-04  0.00000000E+00  0.00000000E+00  5.52935774E+06  5.52935774E+06
        64   89       3.12165011E-04  0.00000000E+00  1.25421613E+05  0.00000000E+00  1.25421613E+05
        64   55       3.12165011E-04  1.25421613E+05  0.00000000E+00  0.00000000E+00  1.25421613E+05
        64   56       8.50534174E-05  7.22601934E+04  0.00000000E+00  0.00000000E+00  7.22601934E+04
        64   19       1.71712169E-03  0.00000000E+00  0.00000000E+00  2.87049237E+06  2.87049237E+06
        64   20       8.48086032E-05  0.00000000E+00  0.00000000E+00  1.88339312E+05  1.88339312E+05
        64   21       3.83642509E-01  0.00000000E+00  0.00000000E+00  3.13396835E+09  3.13396835E+09
        64   90       1.76174039E-02  0.00000000E+00  1.90728962E+08  0.00000000E+00  1.90728962E+08
        64   91       4.78965440E-03  0.00000000E+00  9.89005765E+07  0.00000000E+00  9.89005765E+07
        64   57       4.78965440E-03  9.89005765E+07  0.00000000E+00  0.00000000E+00  9.89005765E+07
        64   22       1.10573815E-03  0.00000000E+00  0.00000000E+00  2.43134724E+07  2.43134724E+07
        64   92       1.74491690E-05  0.00000000E+00  6.90189169E+05  0.00000000E+00  6.90189169E+05
        76   89       3.12165011E-04  1.25421613E+05  0.00000000E+00  0.00000000E+00  1.25421613E+05
        76   55       3.12165011E-04  0.00000000E+00  1.25421613E+05  0.00000000E+00  1.25421613E+05
        76   56       8.50534174E-05  0.00000000E+00  7.22601934E+04  0.00000000E+00  7.22601934E+04
        76   31       1.71712169E-03  0.00000000E+00  0.00000000E+00  2.87049237E+06  2.87049237E+06
        76   32       8.48086032E-05  0.00000000E+00  0.00000000E+00  1.88339312E+05  1.88339312E+05
        76   33       3.83642509E-01  0.00000000E+00  0.00000000E+00  3.13396835E+09  3.13396835E+09
        76   90       1.76174039E-02  1.90728962E+08  0.00000000E+00  0.00000000E+00  1.90728962E+08
        76   91       4.78965440E-03  9.89005765E+07  0.00000000E+00  0.00000000E+00  9.89005765E+07
        76   57       4.78965440E-03  0.00000000E+00  9.89005765E+07  0.00000000E+00  9.89005765E+07
        76   34       1.10573815E-03  0.00000000E+00  0.00000000E+00  2.43134724E+07  2.43134724E+07
        76   92       1.74491690E-05  6.90189169E+05  0.00000000E+00  0.00000000E+00  6.90189169E+05
        94   49       2.22248107E-01  0.00000000E+00  0.00000000E+00  5.25694222E+08  5.25694222E+08
        94   82       1.50611915E-04  7.57254696E+05  0.00000000E+00  0.00000000E+00  7.57254696E+05
        94   70       1.50611915E-04  0.00000000E+00  7.57254696E+05  0.00000000E+00  7.57254696E+05
        94   72       1.77983812E-03  0.00000000E+00  1.19157766E+07  0.00000000E+00  1.19157766E+07
        94   84       1.77983812E-03  1.19157766E+07  0.00000000E+00  0.00000000E+00  1.19157766E+07
        94   73       1.82511043E-04  0.00000000E+00  1.27944816E+06  0.00000000E+00  1.27944816E+06
        94   85       1.82511043E-04  1.27944816E+06  0.00000000E+00  0.00000000E+00  1.27944816E+06
        94   74       7.80436384E-02  0.00000000E+00  8.98612019E+08  0.00000000E+00  8.98612019E+08
        94   86       7.80436384E-02  8.98612019E+08  0.00000000E+00  0.00000000E+00  8.98612019E+08
        94   50       1.03200074E-05  0.00000000E+00  0.00000000E+00  1.46294177E+05  1.46294177E+05
        94   53       6.73670537E-03  0.00000000E+00  0.00000000E+00  1.37433888E+08  1.37433888E+08
        89   44       2.16636676E-01  0.00000000E+00  0.00000000E+00  4.13021181E+08  4.13021181E+08
        89   77       3.31351992E-04  1.41443593E+06  0.00000000E+00  0.00000000E+00  1.41443593E+06
        89   65       3.31351992E-04  0.00000000E+00  1.41443593E+06  0.00000000E+00  1.41443593E+06
        89   66       1.50849932E-03  0.00000000E+00  8.86117392E+06  0.00000000E+00  8.86117392E+06
        89   78       1.50849932E-03  8.86117392E+06  0.00000000E+00  0.00000000E+00  8.86117392E+06
        89   79       6.75297026E-04  4.34597124E+06  0.00000000E+00  0.00000000E+00  4.34597124E+06
        89   67       6.75297026E-04  0.00000000E+00  4.34597124E+06  0.00000000E+00  4.34597124E+06
        89   80       1.35607344E-02  1.29785975E+08  0.00000000E+00  0.00000000E+00  1.29785975E+08
        89   68       1.35607344E-02  0.00000000E+00  1.29785975E+08  0.00000000E+00  1.29785975E+08
        89   45       2.27180269E-03  0.00000000E+00  0.00000000E+00  3.50711034E+07  3.50711034E+07
        89   47       1.15993951E-01  0.00000000E+00  0.00000000E+00  2.53647299E+09  2.53647299E+09
        55    4       2.16636676E-01  0.00000000E+00  0.00000000E+00  4.13021181E+08  4.13021181E+08
        55   77       3.31351992E-04  0.00000000E+00  1.41443593E+06  0.00000000E+00  1.41443593E+06
        55   65       3.31351992E-04  1.41443593E+06  0.00000000E+00  0.00000000E+00  1.41443593E+06
        55   66       1.50849932E-03  8.86117392E+06  0.00000000E+00  0.00000000E+00  8.86117392E+06
        55   78       1.50849932E-03  0.00000000E+00  8.86117392E+06  0.00000000E+00  8.86117392E+06
        55   79       6.75297026E-04  0.00000000E+00  4.34597124E+06  0.00000000E+00  4.34597124E+06
        55   67       6.75297026E-04  4.34597124E+06  0.00000000E+00  0.00000000E+00  4.34597124E+06
        55   80       1.35607344E-02  0.00000000E+00  1.29785975E+08  0.00000000E+00  1.29785975E+08
        55   68       1.35607344E-02  1.29785975E+08  0.00000000E+00  0.00000000E+00  1.29785975E+08
        55    7       2.27180269E-03  0.00000000E+00  0.00000000E+00  3.50711034E+07  3.50711034E+07
        55    9       1.15993951E-01  0.00000000E+00  0.00000000E+00  2.53647299E+09  2.53647299E+09
        55   12       7.26182902E-01  0.00000000E+00  0.00000000E+00  3.12707016E+10  3.12707016E+10
        56    3       3.26600726E-02  0.00000000E+00  0.00000000E+00  3.68952166E+07  3.68952166E+07
        56    5       1.73353817E-01  0.00000000E+00  0.00000000E+00  2.93043359E+08  2.93043359E+08
        56   77       1.55712315E-05  0.00000000E+00  4.92367031E+04  0.00000000E+00  4.92367031E+04
        56   65       1.55712315E-05  4.92367031E+04  0.00000000E+00  0.00000000E+00  4.92367031E+04
        56   79       2.42156261E-05  0.00000000E+00  1.22481384E+05  0.00000000E+00  1.22481384E+05
        56   67       2.42156261E-05  1.22481384E+05  0.00000000E+00  0.00000000E+00  1.22481384E+05
        56   80       5.77677497E-03  0.00000000E+00  4.54773829E+07  0.00000000E+00  4.54773829E+07
        56   68       5.77677497E-03  4.54773829E+07  0.00000000E+00  0.00000000E+00  4.54773829E+07
        56    6       5.15603776E-03  0.00000000E+00  0.00000000E+00  6.81820698E+07  6.81820698E+07
        56    8       2.20867700E-02  0.00000000E+00  0.00000000E+00  3.66523233E+08  3.66523233E+08
        56   10       7.81846656E-02  0.00000000E+00  0.00000000E+00  1.66164595E+09  1.66164595E+09
        56   11       4.63545408E-03  0.00000000E+00  0.00000000E+00  1.18271859E+08  1.18271859E+08
        24   49       1.37847130E-05  0.00000000E+00  7.68822733E+03  0.00000000E+00  7.68822733E+03
        24   70       3.47251783E-03  0.00000000E+00  0.00000000E+00  7.31241081E+06  7.31241081E+06
        24   72       1.06680121E-05  0.00000000E+00  0.00000000E+00  3.44220983E+04  3.44220983E+04
        24   73       2.07556951E-04  0.00000000E+00  0.00000000E+00  7.15391871E+05  7.15391871E+05
        24   74       2.29359455E-03  0.00000000E+00  0.00000000E+00  1.55298730E+07  1.55298730E+07
        24   50       7.51780672E-03  0.00000000E+00  6.64890822E+07  0.00000000E+00  6.64890822E+07
        24   13       1.20343678E-02  1.31117723E+08  0.00000000E+00  0.00000000E+00  1.31117723E+08
        24   51       1.20343678E-02  0.00000000E+00  1.31117723E+08  0.00000000E+00  1.31117723E+08
        24   14       5.28799510E-03  5.94410102E+07  0.00000000E+00  0.00000000E+00  5.94410102E+07
        24   52       2.42415692E-02  0.00000000E+00  3.30285517E+08  0.00000000E+00  3.30285517E+08
        24   15       2.42415692E-02  3.30285517E+08  0.00000000E+00  0.00000000E+00  3.30285517E+08
        24   53       1.18844727E-02  0.00000000E+00  1.64954767E+08  0.00000000E+00  1.64954767E+08
        36   49       1.37847130E-05  7.68822733E+03  0.00000000E+00  0.00000000E+00  7.68822733E+03
        36   82       3.47251783E-03  0.00000000E+00  0.00000000E+00  7.31241081E+06  7.31241081E+06
        36   84       1.06680121E-05  0.00000000E+00  0.00000000E+00  3.44220983E+04  3.44220983E+04
        36   85       2.07556951E-04  0.00000000E+00  0.00000000E+00  7.15391871E+05  7.15391871E+05
        36   86       2.29359455E-03  0.00000000E+00  0.00000000E+00  1.55298730E+07  1.55298730E+07
        36   50       7.51780672E-03  6.64890822E+07  0.00000000E+00  0.00000000E+00  6.64890822E+07
        36   13       1.20343678E-02  0.00000000E+00  1.31117723E+08  0.00000000E+00  1.31117723E+08
        36   51       1.20343678E-02  1.31117723E+08  0.00000000E+00  0.00000000E+00  1.31117723E+08
        36   14       5.28799510E-03  0.00000000E+00  5.94410102E+07  0.00000000E+00  5.94410102E+07
        36   52       2.42415692E-02  3.30285517E+08  0.00000000E+00  0.00000000E+00  3.30285517E+08
        36   15       2.42415692E-02  0.00000000E+00  3.30285517E+08  0.00000000E+00  3.30285517E+08
        36   53       1.18844727E-02  1.64954767E+08  0.00000000E+00  0.00000000E+00  1.64954767E+08
        25   49       5.46861745E-04  0.00000000E+00  1.20993718E+05  0.00000000E+00  1.20993718E+05
        25   70       1.23159563E-03  0.00000000E+00  0.00000000E+00  1.69948030E+06  1.69948030E+06
        25   72       6.70742808E-04  0.00000000E+00  0.00000000E+00  1.54937452E+06  1.54937452E+06
        25   73       1.81664106E-03  0.00000000E+00  0.00000000E+00  4.53559161E+06  4.53559161E+06
        25   74       1.60915393E-03  0.00000000E+00  0.00000000E+00  8.70346719E+06  8.70346719E+06
        25   50       3.84498146E-04  0.00000000E+00  2.79775817E+06  0.00000000E+00  2.79775817E+06
        25   13       1.81156606E-03  1.65698937E+07  0.00000000E+00  0.00000000E+00  1.65698937E+07
        25   51       1.81156606E-03  0.00000000E+00  1.65698937E+07  0.00000000E+00  1.65698937E+07
        25   14       2.74037370E-03  2.59334954E+07  0.00000000E+00  0.00000000E+00  2.59334954E+07
        25   52       3.01292550E-02  0.00000000E+00  3.51318426E+08  0.00000000E+00  3.51318426E+08
        25   15       3.01292550E-02  3.51318426E+08  0.00000000E+00  0.00000000E+00  3.51318426E+08
        25   53       4.09349783E-02  0.00000000E+00  4.86981193E+08  0.00000000E+00  4.86981193E+08
        37   49       5.46861745E-04  1.20993718E+05  0.00000000E+00  0.00000000E+00  1.20993718E+05
        37   82       1.23159563E-03  0.00000000E+00  0.00000000E+00  1.69948030E+06  1.69948030E+06
        37   84       6.70742808E-04  0.00000000E+00  0.00000000E+00  1.54937452E+06  1.54937452E+06
        37   85       1.81664106E-03  0.00000000E+00  0.00000000E+00  4.53559161E+06  4.53559161E+06
        37   86       1.60915393E-03  0.00000000E+00  0.00000000E+00  8.70346719E+06  8.70346719E+06
        37   50       3.84498146E-04  2.79775817E+06  0.00000000E+00  0.00000000E+00  2.79775817E+06
        37   13       1.81156606E-03  0.00000000E+00  1.65698937E+07  0.00000000E+00  1.65698937E+07
        37   51       1.81156606E-03  1.65698937E+07  0.00000000E+00  0.00000000E+00  1.65698937E+07
        37   14       2.74037370E-03  0.00000000E+00  2.59334954E+07  0.00000000E+00  2.59334954E+07
        37   52       3.01292550E-02  3.51318426E+08  0.00000000E+00  0.00000000E+00  3.51318426E+08
        37   15       3.01292550E-02  0.00000000E+00  3.51318426E+08  0.00000000E+00  3.51318426E+08
        37   53       4.09349783E-02  4.86981193E+08  0.00000000E+00  0.00000000E+00  4.86981193E+08
        31    3       2.30347437E-03  0.00000000E+00  1.10194494E+06  0.00000000E+00  1.10194494E+06
        31   44       7.65891689E-04  3.98903715E+05  0.00000000E+00  0.00000000E+00  3.98903715E+05
        31    4       7.65891689E-04  0.00000000E+00  3.98903715E+05  0.00000000E+00  3.98903715E+05
        31    5       6.73057141E-03  0.00000000E+00  5.80825027E+06  0.00000000E+00  5.80825027E+06
        31   77       8.62733665E-04  0.00000000E+00  0.00000000E+00  1.70791427E+06  1.70791427E+06
        31   79       4.23171108E-03  0.00000000E+00  0.00000000E+00  1.49212622E+07  1.49212622E+07
        31   80       4.89101803E-02  0.00000000E+00  0.00000000E+00  2.89899672E+08  2.89899672E+08
        31    6       2.30560751E-03  0.00000000E+00  2.45818662E+07  0.00000000E+00  2.45818662E+07
        31    7       1.63197290E-02  0.00000000E+00  1.74504159E+08  0.00000000E+00  1.74504159E+08
        31   45       1.63197290E-02  1.74504159E+08  0.00000000E+00  0.00000000E+00  1.74504159E+08
        31    8       1.61693833E-03  0.00000000E+00  2.21652203E+07  0.00000000E+00  2.21652203E+07
        31   46       2.84438368E-02  3.95764552E+08  0.00000000E+00  0.00000000E+00  3.95764552E+08
        31    9       4.19514062E-02  0.00000000E+00  6.76997405E+08  0.00000000E+00  6.76997405E+08
        31   47       4.19514062E-02  6.76997405E+08  0.00000000E+00  0.00000000E+00  6.76997405E+08
        31   10       1.31948293E-01  0.00000000E+00  2.37085160E+09  0.00000000E+00  2.37085160E+09
        31   11       3.45380519E-02  0.00000000E+00  7.56463663E+08  0.00000000E+00  7.56463663E+08
        19    3       2.30347437E-03  1.10194494E+06  0.00000000E+00  0.00000000E+00  1.10194494E+06
        19   44       7.65891689E-04  0.00000000E+00  3.98903715E+05  0.00000000E+00  3.98903715E+05
        19    4       7.65891689E-04  3.98903715E+05  0.00000000E+00  0.00000000E+00  3.98903715E+05
        19    5       6.73057141E-03  5.80825027E+06  0.00000000E+00  0.00000000E+00  5.80825027E+06
        19   65       8.62733665E-04  0.00000000E+00  0.00000000E+00  1.70791427E+06  1.70791427E+06
        19   67       4.23171108E-03  0.00000000E+00  0.00000000E+00  1.49212622E+07  1.49212622E+07
        19   68       4.89101803E-02  0.00000000E+00  0.00000000E+00  2.89899672E+08  2.89899672E+08
        19    6       2.30560752E-03  2.45818662E+07  0.00000000E+00  0.00000000E+00  2.45818662E+07
        19    7       1.63197290E-02  1.74504159E+08  0.00000000E+00  0.00000000E+00  1.74504159E+08
        19   45       1.63197290E-02  0.00000000E+00  1.74504159E+08  0.00000000E+00  1.74504159E+08
        19    8       1.61693833E-03  2.21652203E+07  0.00000000E+00  0.00000000E+00  2.21652203E+07
        19   46       2.84438368E-02  0.00000000E+00  3.95764552E+08  0.00000000E+00  3.95764552E+08
        19    9       4.19514062E-02  6.76997405E+08  0.00000000E+00  0.00000000E+00  6.76997405E+08
        19   47       4.19514062E-02  0.00000000E+00  6.76997405E+08  0.00000000E+00  6.76997405E+08
        19   10       1.31948293E-01  2.37085160E+09  0.00000000E+00  0.00000000E+00  2.37085160E+09
        19   11       3.45380519E-02  7.56463663E+08  0.00000000E+00  0.00000000E+00  7.56463663E+08
        32    3       1.62536911E-03  0.00000000E+00  3.97243557E+05  0.00000000E+00  3.97243557E+05
        32   44       1.08712181E-03  2.98961251E+05  0.00000000E+00  0.00000000E+00  2.98961251E+05
        32    4       1.08712181E-03  0.00000000E+00  2.98961251E+05  0.00000000E+00  2.98961251E+05
        32    5       4.56896673E-03  0.00000000E+00  2.44599992E+06  0.00000000E+00  2.44599992E+06
        32   77       6.53460561E-03  0.00000000E+00  0.00000000E+00  9.56287618E+06  9.56287618E+06
        32   79       9.23444650E-03  0.00000000E+00  0.00000000E+00  2.60787458E+07  2.60787458E+07
        32   80       1.10564792E-02  0.00000000E+00  0.00000000E+00  5.53432519E+07  5.53432519E+07
        32    6       4.21310948E-03  0.00000000E+00  3.96552413E+07  0.00000000E+00  3.96552413E+07
        32    7       1.91494265E-04  0.00000000E+00  1.80799894E+06  0.00000000E+00  1.80799894E+06
        32   45       1.91494265E-04  1.80799894E+06  0.00000000E+00  0.00000000E+00  1.80799894E+06
        32    8       4.69141380E-04  0.00000000E+00  5.76396671E+06  0.00000000E+00  5.76396671E+06
        32   46       1.23997481E-01  1.54761680E+09  0.00000000E+00  0.00000000E+00  1.54761680E+09
        32    9       2.87441083E-02  0.00000000E+00  4.19420855E+08  0.00000000E+00  4.19420855E+08
        32   47       2.87441083E-02  4.19420855E+08  0.00000000E+00  0.00000000E+00  4.19420855E+08
        32   10       4.49003698E-03  0.00000000E+00  7.33422590E+07  0.00000000E+00  7.33422590E+07
        32   11       1.80354464E-01  0.00000000E+00  3.62416596E+09  0.00000000E+00  3.62416596E+09
        32   12       2.67717223E-03  0.00000000E+00  8.71579804E+07  0.00000000E+00  8.71579804E+07
        20    3       1.62536911E-03  3.97243557E+05  0.00000000E+00  0.00000000E+00  3.97243557E+05
        20   44       1.08712181E-03  0.00000000E+00  2.98961251E+05  0.00000000E+00  2.98961251E+05
        20    4       1.08712181E-03  2.98961251E+05  0.00000000E+00  0.00000000E+00  2.98961251E+05
        20    5       4.56896673E-03  2.44599992E+06  0.00000000E+00  0.00000000E+00  2.44599992E+06
        20   65       6.53460561E-03  0.00000000E+00  0.00000000E+00  9.56287618E+06  9.56287618E+06
        20   67       9.23444650E-03  0.00000000E+00  0.00000000E+00  2.60787458E+07  2.60787458E+07
        20   68       1.10564792E-02  0.00000000E+00  0.00000000E+00  5.53432519E+07  5.53432519E+07
        20    6       4.21310948E-03  3.96552413E+07  0.00000000E+00  0.00000000E+00  3.96552413E+07
        20    7       1.91494265E-04  1.80799894E+06  0.00000000E+00  0.00000000E+00  1.80799894E+06
        20   45       1.91494265E-04  0.00000000E+00  1.80799894E+06  0.00000000E+00  1.80799894E+06
        20    8       4.69141380E-04  5.76396671E+06  0.00000000E+00  0.00000000E+00  5.76396671E+06
        20   46       1.23997481E-01  0.00000000E+00  1.54761680E+09  0.00000000E+00  1.54761680E+09
        20    9       2.87441083E-02  4.19420855E+08  0.00000000E+00  0.00000000E+00  4.19420855E+08
        20   47       2.87441083E-02  0.00000000E+00  4.19420855E+08  0.00000000E+00  4.19420855E+08
        20   10       4.49003698E-03  7.33422590E+07  0.00000000E+00  0.00000000E+00  7.33422590E+07
        20   11       1.80354464E-01  3.62416596E+09  0.00000000E+00  0.00000000E+00  3.62416596E+09
        20   12       2.67717223E-03  8.71579804E+07  0.00000000E+00  0.00000000E+00  8.71579804E+07
        49   26       1.27396161E-03  0.00000000E+00  7.93096582E+04  0.00000000E+00  7.93096582E+04
        49   38       1.27396161E-03  7.93096582E+04  0.00000000E+00  0.00000000E+00  7.93096582E+04
        49   96       1.33476970E-05  0.00000000E+00  0.00000000E+00  2.17898899E+04  2.17898899E+04
        49   39       1.10513026E-04  7.57379926E+05  0.00000000E+00  0.00000000E+00  7.57379926E+05
        49   27       1.10513026E-04  0.00000000E+00  7.57379926E+05  0.00000000E+00  7.57379926E+05
        49   97       5.44436329E-04  0.00000000E+00  0.00000000E+00  3.91814085E+06  3.91814085E+06
        49   29       4.47885253E-03  0.00000000E+00  3.80993616E+07  0.00000000E+00  3.80993616E+07
        49   41       4.47885253E-03  3.80993616E+07  0.00000000E+00  0.00000000E+00  3.80993616E+07
        49   98       1.57001248E-04  0.00000000E+00  0.00000000E+00  2.84626217E+06  2.84626217E+06
        26   70       2.03296081E-04  0.00000000E+00  0.00000000E+00  4.20523147E+04  4.20523147E+04
        26   72       4.82419824E-04  0.00000000E+00  0.00000000E+00  3.08722926E+05  3.08722926E+05
        26   73       8.28790222E-03  0.00000000E+00  0.00000000E+00  6.13273534E+06  6.13273534E+06
        26   74       3.21512650E-01  0.00000000E+00  0.00000000E+00  8.29034517E+08  8.29034517E+08
        26   50       7.20424016E-04  0.00000000E+00  2.81749846E+06  0.00000000E+00  2.81749846E+06
        26   13       1.86143493E-03  9.88533321E+06  0.00000000E+00  0.00000000E+00  9.88533321E+06
        26   51       1.86143493E-03  0.00000000E+00  9.88533321E+06  0.00000000E+00  9.88533321E+06
        26   14       4.17492060E-04  2.31816902E+06  0.00000000E+00  0.00000000E+00  2.31816902E+06
        26   52       1.00494919E-04  0.00000000E+00  7.29814616E+05  0.00000000E+00  7.29814616E+05
        26   15       1.00494919E-04  7.29814616E+05  0.00000000E+00  0.00000000E+00  7.29814616E+05
        26   53       1.47578999E-03  0.00000000E+00  1.09928126E+07  0.00000000E+00  1.09928126E+07
        38   82       2.03296081E-04  0.00000000E+00  0.00000000E+00  4.20523147E+04  4.20523147E+04
        38   84       4.82419824E-04  0.00000000E+00  0.00000000E+00  3.08722926E+05  3.08722926E+05
        38   85       8.28790222E-03  0.00000000E+00  0.00000000E+00  6.13273534E+06  6.13273534E+06
        38   86       3.21512650E-01  0.00000000E+00  0.00000000E+00  8.29034517E+08  8.29034517E+08
        38   50       7.20424016E-04  2.81749846E+06  0.00000000E+00  0.00000000E+00  2.81749846E+06
        38   13       1.86143493E-03  0.00000000E+00  9.88533321E+06  0.00000000E+00  9.88533321E+06
        38   51       1.86143493E-03  9.88533321E+06  0.00000000E+00  0.00000000E+00  9.88533321E+06
        38   14       4.17492060E-04  0.00000000E+00  2.31816902E+06  0.00000000E+00  2.31816902E+06
[...]
        70   29            28.487622  1.52184330E-02  1.18442794E-02
        70   98            67.605603  1.80027406E-02  1.07411329E-02
        70   63            89.338322  2.93179238E-04  2.74984149E-03
        71   95            96.622375  3.69201648E-04  1.09308066E-02
        71   60            96.622375  3.69201648E-04  1.09308066E-02
        71   28            38.600085  1.48019602E-01  1.06796184E-01
        83   95            96.622375  3.69201648E-04  1.09308066E-02
        83   60            96.622375  3.69201648E-04  1.09308066E-02
        83   40            38.600085  1.48019602E-01  1.06796184E-01
        77   33            99.102680  1.36151278E-04  1.51731069E-02
        77   90           214.540685  1.03740648E-03  3.29816310E-04
        77   91            12.865151  1.17277749E-02  1.03909620E-02
        77   57            12.865151  1.17277749E-02  1.03909620E-02
        77   34            41.884254  1.31565207E-01  9.27271377E-02
        77   92           199.020729  8.88487102E-03  2.97132277E-03
        65   21            99.102680  1.36151278E-04  1.51731069E-02
        65   90           214.540685  1.03740648E-03  3.29816310E-04
        65   91            12.865151  1.17277749E-02  1.03909620E-02
        65   57            12.865151  1.17277749E-02  1.03909620E-02
        65   22            41.884254  1.31565207E-01  9.27271377E-02
        65   92           199.020729  8.88487102E-03  2.97132277E-03
        72   95      --------------- below threshold  1.78718534E-05
        72   60      --------------- below threshold  1.78718535E-05
        72   61            96.669324  3.01451009E-05  9.05074457E-04
        72   96          2884.062125  3.57233105E-04  1.19713696E-05
        72   62      --------------- below threshold  5.84692342E-05
        72   27            64.432727  3.03564201E-03  1.84613006E-03
        72   97            48.065731  2.02281264E-02  1.36615855E-02
        72   29            31.872398  1.15886313E-01  8.78776112E-02
        72   98            42.239287  1.05069793E-02  7.38683347E-03
        72   63            92.218102  5.98588757E-04  7.69206616E-03
        84   95      --------------- below threshold  1.78718535E-05
        84   60      --------------- below threshold  1.78718534E-05
        84   61            96.669324  3.01451009E-05  9.05074457E-04
        84   96          2884.062125  3.57233105E-04  1.19713696E-05
        84   62      --------------- below threshold  5.84692342E-05
        84   39            64.432727  3.03564201E-03  1.84613006E-03
        84   97            48.065731  2.02281264E-02  1.36615855E-02
        84   41            31.872398  1.15886313E-01  8.78776112E-02
        84   98            42.239287  1.05069793E-02  7.38683347E-03
        84   63            92.218102  5.98588757E-04  7.69206616E-03
        73   95      --------------- below threshold  7.33561125E-03
        73   60      --------------- below threshold  7.33561125E-03
        73   61            99.737127  7.92872361E-05  3.01617750E-02
        73   96            99.153325  7.78353370E-05  9.19305484E-03
        73   62      --------------- below threshold  5.07648918E-04
        73   29            29.499598  1.23977355E-02  9.57357068E-03
        73   98            79.067308  6.51158701E-04  3.11072607E-03
        73   63            16.391297  1.09948990E-03  1.31504241E-03
        85   95      --------------- below threshold  7.33561125E-03
        85   60      --------------- below threshold  7.33561125E-03
        85   61            99.737127  7.92872361E-05  3.01617750E-02
        85   96            99.153325  7.78353370E-05  9.19305484E-03
        85   62      --------------- below threshold  5.07648918E-04
        85   41            29.499598  1.23977355E-02  9.57357068E-03
        85   98            79.067308  6.51158701E-04  3.11072607E-03
        85   63            16.391297  1.09948990E-03  1.31504241E-03
        95   74            86.052425  8.61292181E-05  6.17521092E-04
        95   86            86.052425  8.61292181E-05  6.17521092E-04
        95   51            19.349024  1.50114921E-02  1.86129083E-02
        95   52            16.620332  3.39432439E-02  4.07092578E-02
        60   74            86.052425  8.61292181E-05  6.17521092E-04
        60   86            86.052425  8.61292181E-05  6.17521092E-04
        60   13            19.349024  1.50114921E-02  1.86129083E-02
        60   15            16.620332  3.39432439E-02  4.07092578E-02
        61   74            96.754025  1.15106272E-05  3.54612320E-04
        61   86            96.754025  1.15106272E-05  3.54612320E-04
        61   14            15.625132  1.00958626E-02  1.19654856E-02
        21   67            92.259636  5.69954684E-03  7.36340916E-02
        21   68            28.322127  6.89939235E-02  9.62555398E-02
        21    6           115.011802  6.41267231E-04  2.98247457E-04
        21    8            73.227519  9.79713385E-05  3.65940456E-04
        21   46           819.375111  2.18379604E-03  2.37530472E-04
        21    9           101.394377  5.34225363E-04  2.65263296E-04
        21   47           101.394377  5.34225363E-04  2.65263296E-04
        21   11           133.810630  8.53814500E-02  3.65173517E-02
        21   12           286.304383  1.87418907E-03  4.85158635E-04
        33   79            92.259636  5.69954684E-03  7.36340916E-02
        33   80            28.322127  6.89939235E-02  9.62555398E-02
        33    6           115.011802  6.41267231E-04  2.98247457E-04
        33    8            73.227519  9.79713385E-05  3.65940456E-04
        33   46           819.375111  2.18379604E-03  2.37530472E-04
        33    9           101.394377  5.34225363E-04  2.65263296E-04
        33   47           101.394377  5.34225363E-04  2.65263296E-04
        33   11           133.810630  8.53814500E-02  3.65173517E-02
        33   12           286.304383  1.87418907E-03  4.85158635E-04
        96   74            85.907474  7.79131249E-05  5.52868401E-04
        96   86            85.907474  7.79131249E-05  5.52868401E-04
        96   50           503.085510  1.11174534E-03  1.84342904E-04
        96   53            40.975876  7.35273202E-03  1.24571641E-02
        66   91           280.290521  8.50770096E-03  2.23715830E-03
        66   57           280.290522  8.50770096E-03  2.23715830E-03
        66   23            28.292814  1.64998752E-01  1.28611063E-01
        78   91           280.290522  8.50770096E-03  2.23715830E-03
        78   57           280.290521  8.50770096E-03  2.23715830E-03
        78   35            28.292814  1.64998752E-01  1.28611063E-01
        79   90            99.885290  2.29319978E-05  1.99913645E-02
        79   91           178.350777  2.33029460E-03  8.37179126E-04
        79   57           178.350777  2.33029460E-03  8.37179126E-04
        79   34            21.098144  3.65048356E-03  4.62661306E-03
        79   92           408.449972  1.49079971E-03  2.93204798E-04
        67   90            99.885290  2.29319978E-05  1.99913645E-02
        67   91           178.350777  2.33029460E-03  8.37179126E-04
        67   57           178.350777  2.33029460E-03  8.37179126E-04
        67   22            21.098144  3.65048356E-03  4.62661306E-03
        67   92           408.449972  1.49079971E-03  2.93204798E-04
        62   74            90.677437  9.25804504E-04  9.93079328E-03
        62   86            90.677437  9.25804504E-04  9.93079328E-03
        62   14            31.256049  1.41034577E-03  2.05159254E-03
        90   80           148.333857  8.01463876E-05  3.22736451E-05
        90   68           148.333857  8.01463875E-05  3.22736451E-05
        90   46      --------------- below threshold  8.16712639E-04
        74   27      --------------- below threshold  5.58793097E-04
        74   97            91.468060  1.29377501E-05  1.51639024E-04
        74   29      ---------------  1.87158472E-04 below threshold
        74   98           260.580432  5.86015443E-04  1.62520035E-04
        74   63      --------------- below threshold  1.70671054E-04
        86   39      --------------- below threshold  5.58793097E-04
        86   97            91.468060  1.29377501E-05  1.51639024E-04
        86   41      ---------------  1.87158472E-04 below threshold
        86   98           260.580432  5.86015443E-04  1.62520035E-04
        86   63      --------------- below threshold  1.70671054E-04
        16   42            97.620318  4.25825801E-04  1.78942302E-02
        16   30            97.620318  4.25825801E-04  1.78942302E-02
        54   42            97.620318  4.25825801E-04  1.78942302E-02
        54   30            97.620318  4.25825801E-04  1.78942302E-02
        17   42            97.157884  3.13207703E-04  1.10202288E-02
        17   30            97.157884  3.13207703E-04  1.10202288E-02
        80   91            96.477868  2.68790441E-05  7.63146982E-04
        80   57            96.477868  2.68790441E-05  7.63146982E-04
        80   34      --------------- below threshold  5.43888773E-04
        80   92          1175.610205  2.98983642E-03  2.34384799E-04
        68   91            96.477868  2.68790441E-05  7.63146982E-04
        68   57            96.477868  2.68790441E-05  7.63146982E-04
        68   22      --------------- below threshold  5.43888773E-04
        68   92          1175.610205  2.98983642E-03  2.34384799E-04
        42   18           227.505088  5.35599196E-03  1.63539199E-03
        30   18           227.505088  5.35599196E-03  1.63539199E-03
        50   39            90.901383  9.65197321E-04  1.06081764E-02
        50   27            90.901383  9.65197321E-04  1.06081764E-02
        50   97            84.535362  1.65128337E-03  1.06778015E-02
        50   29            94.429988  4.53419964E-05  8.14037634E-04
        50   41            94.429988  4.53419964E-05  8.14037634E-04
        13   39      --------------- below threshold  3.06705917E-03
        13   27      --------------- below threshold  3.06705917E-03
        13   28            88.702513  6.47946704E-04  5.73531707E-03
        13   40            88.702513  6.47946704E-04  5.73531707E-03
        13   29            98.179874  8.94313763E-05  4.91347157E-03
        13   41            98.179874  8.94313763E-05  4.91347157E-03
        51   39      --------------- below threshold  3.06705917E-03
        51   27      --------------- below threshold  3.06705917E-03
        51   28            88.702513  6.47946704E-04  5.73531707E-03
        51   40            88.702513  6.47946704E-04  5.73531707E-03
        51   29            98.179874  8.94313763E-05  4.91347157E-03
        51   41            98.179874  8.94313763E-05  4.91347157E-03
        14   39      --------------- below threshold  1.08280318E-01
        14   27      --------------- below threshold  1.08280318E-01
        14   29            97.302393  1.86312219E-04  6.90657314E-03
        14   41            97.302393  1.86312219E-04  6.90657314E-03
        14   63            59.922647  2.54130874E-04  6.34100941E-04
        39   52            68.328210  2.18764847E-05  6.90724603E-05
        39   15            68.328210  2.18764847E-05  6.90724603E-05
        39   53            94.302177  3.67759261E-04  6.45438197E-03
        27   52            68.328210  2.18764847E-05  6.90724603E-05
        27   15            68.328210  2.18764847E-05  6.90724603E-05
        27   53            94.302177  3.67759261E-04  6.45438197E-03
        97   53            92.850914  4.82190945E-03  6.74479142E-02
        28   52            99.952671  2.96803781E-05  6.27107250E-02
        28   15            99.952671  2.96803781E-05  6.27107250E-02
        40   52            99.952671  2.96803781E-05  6.27107250E-02
        40   15            99.952671  2.96803781E-05  6.27107250E-02
        91   45            97.531785  2.81114902E-04  1.13893987E-02
        91   47            69.663515  2.84280388E-02  9.37090713E-02
        57    7            97.531785  2.81114902E-04  1.13893987E-02
        57    9            69.663515  2.84280388E-02  9.37090713E-02
        57   12            25.545198  2.69518886E-01  2.14678769E-01
         6   22            99.087398  1.50666912E-04  1.65095990E-02
         6   34            99.087398  1.50666912E-04  1.65095990E-02
         7   22            99.359947  5.02788183E-05  7.85541566E-03
         7   34            99.359947  5.02788183E-05  7.85541566E-03
         7   23            93.294782  7.55971845E-04  1.12743812E-02
         7   35            93.294782  7.55971845E-04  1.12743812E-02
        45   22            99.359947  5.02788183E-05  7.85541566E-03
        45   34            99.359947  5.02788183E-05  7.85541566E-03
        45   23            93.294782  7.55971845E-04  1.12743812E-02
        45   35            93.294782  7.55971845E-04  1.12743812E-02
        29   52            99.907570  1.06620429E-05  1.15352455E-02
        29   15            99.907570  1.06620429E-05  1.15352455E-02
        29   53      --------------- below threshold  4.09239313E-03
        41   52            99.907570  1.06620429E-05  1.15352455E-02
        41   15            99.907570  1.06620429E-05  1.15352455E-02
        41   53      --------------- below threshold  4.09239313E-03
        53   98            44.311716  1.87354298E-03  3.36433960E-03
        22    8            99.461388  6.00948643E-05  1.11573626E-02
        22   46            88.703596  2.02875093E-03  1.79592638E-02
        22    9            95.937379  1.73487657E-05  4.27033811E-04
        22   47            95.937379  1.73487657E-05  4.27033811E-04
        22   10            98.793200  3.29275281E-05  2.72849883E-03
        22   11      --------------- below threshold  1.02790858E-03
        22   12            27.810658  1.66597457E-02  1.30347077E-02
        34    8            99.461388  6.00948643E-05  1.11573626E-02
        34   46            88.703596  2.02875093E-03  1.79592638E-02
        34    9            95.937379  1.73487657E-05  4.27033811E-04
        34   47            95.937379  1.73487657E-05  4.27033811E-04
        34   10            98.793200  3.29275281E-05  2.72849883E-03
        34   11      --------------- below threshold  1.02790858E-03
        34   12            27.810658  1.66597457E-02  1.30347077E-02
        23    9      --------------- below threshold  1.83145095E-02
        23   47      --------------- below threshold  1.83145095E-02
        23   12           128.370355  1.86592945E-02  8.17062900E-03
        35    9      --------------- below threshold  1.83145095E-02
        35   47      --------------- below threshold  1.83145095E-02
        35   12           128.370355  1.86592945E-02  8.17062900E-03
        46   92            37.520230  1.05875567E-02  1.69455756E-02
     ---------------------------------------------------------------

 Number of problematic transitions =                   564

--

 Electric-dipole - electric-octupole not included
 Electric-dipole - magnetic-quadrupole not included


      ****************************************************************************************************
      *                                                                                                  *
      *                                    Special properties section                                    *
      *                                                                                                  *
      ****************************************************************************************************


++ I/O STATISTICS
 
  I. General I/O information
  - - - - - - - - - - - - - - - - - - - - - - - - - - - - - - - - - - - - - - - - - - -
  Unit  Name          Flsize      Write/Read            MBytes           Write/Read
                      (MBytes)       Calls              In/Out           Time, sec.
  - - - - - - - - - - - - - - - - - - - - - - - - - - - - - - - - - - - - - - - - - - -
   1  RUNFILE           0.99 .     266/  263081 .      2.5/   1903.2 .       0/       0
   2  ANNI              0.00 .       0/       0 .      0.0/      0.0 .       0/       0
   3  ONEINT            1.54 .       0/  126040 .      0.0/ 152831.4 .       0/      19
   4  JOBIPH            1.52 .       0/     651 .      0.0/      1.5 .       0/       0
   5  JOBIPH01          1.22 .       0/     219 .      0.0/      1.3 .       0/       0
   6  JOBIPH02          1.22 .       0/     219 .      0.0/      1.3 .       0/       0
   7  JOBIPH03          1.28 .       0/     315 .      0.0/      1.4 .       0/       0
   8  JOBIPH04          1.32 .       0/     363 .      0.0/      1.4 .       0/       0
   9  JOBIPH05          1.15 .       0/     123 .      0.0/      1.3 .       0/       0
  10  JOBIPH06          1.28 .       0/     315 .      0.0/      1.4 .       0/       0
  11  JOBIPH07          1.32 .       0/     363 .      0.0/      1.4 .       0/       0
  12  JOBIPH08          1.15 .       0/     123 .      0.0/      1.3 .       0/       0
  13  JOBIPH09          1.28 .       0/     315 .      0.0/      1.4 .       0/       0
  14  JOBIPH10          1.32 .       0/     363 .      0.0/      1.4 .       0/       0
  15  JOBIPH11          1.15 .       0/     123 .      0.0/      1.3 .       0/       0
  16  JOBIPH12          1.22 .       0/     219 .      0.0/      1.3 .       0/       0
  17  JOBIPH13          1.32 .       0/     363 .      0.0/      1.4 .       0/       0
  18  JOBIPH14          1.28 .       0/     315 .      0.0/      1.4 .       0/       0
  19  JOBIPH15          1.32 .       0/     363 .      0.0/      1.4 .       0/       0
  20  JOBIPH16          1.15 .       0/     123 .      0.0/      1.3 .       0/       0
  21  JOBIPH17          1.28 .       0/     315 .      0.0/      1.4 .       0/       0
  22  JOBIPH18          1.32 .       0/     363 .      0.0/      1.4 .       0/       0
  23  JOBIPH19          1.15 .       0/     123 .      0.0/      1.3 .       0/       0
  24  JOBIPH20          1.28 .       0/     315 .      0.0/      1.4 .       0/       0
  25  JOBIPH21          1.32 .       0/     363 .      0.0/      1.4 .       0/       0
  26  JOBIPH22          1.15 .       0/     123 .      0.0/      1.3 .       0/       0
  - - - - - - - - - - - - - - - - - - - - - - - - - - - - - - - - - - - - - - - - - - -
   *  TOTAL            31.50 .     266/  395598 .      2.5/ 154765.6 .       0/      19
  - - - - - - - - - - - - - - - - - - - - - - - - - - - - - - - - - - - - - - - - - - -
 
  II. I/O Access Patterns
  - - - - - - - - - - - - - - - - - - - -
  Unit  Name               % of random
                         Write/Read calls
  - - - - - - - - - - - - - - - - - - - -
   1  RUNFILE             28.6/  11.1
   2  ANNI                 0.0/   0.0
   3  ONEINT               0.0/  99.3
   4  JOBIPH               0.0/  51.9
   5  JOBIPH01             0.0/  55.7
   6  JOBIPH02             0.0/  55.7
   7  JOBIPH03             0.0/  54.0
   8  JOBIPH04             0.0/  53.4
   9  JOBIPH05             0.0/  60.2
  10  JOBIPH06             0.0/  54.0
  11  JOBIPH07             0.0/  53.4
  12  JOBIPH08             0.0/  60.2
  13  JOBIPH09             0.0/  54.0
  14  JOBIPH10             0.0/  53.4
  15  JOBIPH11             0.0/  60.2
  16  JOBIPH12             0.0/  55.7
  17  JOBIPH13             0.0/  53.4
  18  JOBIPH14             0.0/  54.0
  19  JOBIPH15             0.0/  53.4
  20  JOBIPH16             0.0/  60.2
  21  JOBIPH17             0.0/  54.0
  22  JOBIPH18             0.0/  53.4
  23  JOBIPH19             0.0/  60.2
  24  JOBIPH20             0.0/  54.0
  25  JOBIPH21             0.0/  53.4
  26  JOBIPH22             0.0/  60.2
  - - - - - - - - - - - - - - - - - - - -
--
--- Stop Module: rassi at Thu Apr 17 10:50:49 2025 /rc=_RC_ALL_IS_WELL_ ---
--- Module rassi spent 41 seconds ---

.##################.
.# Happy landing! #.
.##################.

    Timing: Wall=41.35 User=19.86 System=20.38
