   This run of MOLCAS is using the pymolcas driver

                             OPE
                             OPE          NMOL  CASOP  ENMOLC A   SO
                 OPE        NMOLC        AS  OP EN  MO LC     AS  OP
                OPENM       OL CA        SO  PE NM  OL CA     SOP EN
                OP EN      MO   LC       AS  OP ENMOL  CASO   PENMOL
                OP  EN     MO   LC       AS  OP EN     MO     LC ASO
               OP   E  NMOL  C  AS       OP  EN MO     LC     AS  OP
               OP  E   NMO   LC AS        OPEN  MO     LCASOP EN   M
               O  PEN   MO  LCA  SO
            OPE   NMO   L   CAS    OP
        OPENMOL  CASOP     ENMOL   CASOPE
     OPENMOLCA   SOPENMOLCASOPEN   MOLCASOPE
    OPENMOLCAS   OP           EN   MOL    CAS
    OPENMOLCAS       OP  ENM        O     LCA
    OPENMOLCAS    OPEN  MOLCASO     P  E  NMO
    OPENMOLCAS     OP               E  N  MOL
    OPENMOLCA   SO           PENM   O  L  CAS    OPEN    MO    LCAS
    OPENMOLCA   SOP           ENM   O  L  CAS   OP  EN  MOLC  AS   O
    OPENMOLCA   SOPE           NM      O  LCA   S      OP  EN MO
    OPENMOLC                AS         O  PEN   M      OL  CA  SOPE
    OPENMO        LCASOPE  NMOL        C  ASO   P      ENMOLC     AS
    OPE     NMO      LCA  SO     P     E   NM   OL  CA SO  PE N   MO
          OPENMOLCA            SOPE   NMO        LCAS  O    P  ENMO
     OPENMOLCASOPENMOLCASOPENMOLCASOPENMOLCA
        OPENMOLCASOPENMOLCASOPENMOLCASOPE
            OPENMOLCASOPENMOLCASOPENM
               OPENMOLCASOPENMOLCA        version: 25.02
                   OPENMOLCASO
                       OPE                tag: 92-gf4b470f0a

 OpenMolcas is free software; you can redistribute it and/or modify it
 under the terms of the GNU Lesser General Public License version 2.1.
 OpenMolcas is distributed in the hope that it will be useful, but it
 is provided "as is" and without any express or implied warranties.
 For more details see the full text of the license in the file
 LICENSE or in <http://www.gnu.org/licenses/>.

                 Copyright (C) The OpenMolcas Authors
           For the author list and the recommended citation,
                   consult the file CONTRIBUTORS.md

           *************************************************
           * pymolcas version py2.29                       *
           *   build 2ba4516c4d154a59cba941070ba63e2c      *
           *   (after the EMIL interpreter by V. Veryazov) *
           *************************************************

configuration info
------------------
Host name: iftia91.univ.gda.pl (Linux)
C Compiler ID: GNU
C flags: -std=gnu99
Fortran Compiler ID: GNU
Fortran flags: -cpp -fdefault-integer-8 -fmax-stack-var-size=1048576
Definitions: _MOLCAS_;_I8_;_LINUX_
Parallel: OFF (GA=OFF)


   --------------------------------------------------------------------
  |
  |           Project: O2
  |    Submitted from: /scratch/tecumseh/WorkSpace/O2.0.8500
  |      Scratch area: /scratch/tecumseh/WorkSpace/O2.0.8500
  |   Save outputs to: WORKDIR
  |            Molcas: /home/tecumseh/program/OpenMolcas/build
  |
  | Scratch area is NOT empty
  |
  |    MOLCAS_DRIVER = /home/tecumseh/program/OpenMolcas/build/pymolcas
  |    MOLCAS_NPROCS = 1
  |    MOLCAS_SOURCE = /home/tecumseh/program/OpenMolcas/OpenMolcas
  | MOLCAS_STRUCTURE = 0
  |
   --------------------------------------------------------------------

++ ---------   Input file   ---------

>>> COPY $dir/vectors/$Project.$R.1Ag-12S.JobIph $WorkDir/JOBIPH

>>> COPY $dir/vectors/$Project.$R.3Ag-3S.JobIph $WorkDir/JOBIPH01

>>> COPY $dir/vectors/$Project.$R.5Ag-3S.JobIph $WorkDir/JOBIPH02

>>> COPY $dir/vectors/$Project.$R.1B3u-5S.JobIph $WorkDir/JOBIPH03

>>> COPY $dir/vectors/$Project.$R.3B3u-6S.JobIph $WorkDir/JOBIPH04

>>> COPY $dir/vectors/$Project.$R.5B3u-1S.JobIph $WorkDir/JOBIPH05

>>> COPY $dir/vectors/$Project.$R.1B2u-5S.JobIph $WorkDir/JOBIPH06

>>> COPY $dir/vectors/$Project.$R.3B2u-6S.JobIph $WorkDir/JOBIPH07

>>> COPY $dir/vectors/$Project.$R.5B2u-1S.JobIph $WorkDir/JOBIPH08

>>> COPY $dir/vectors/$Project.$R.1B1g-5S.JobIph $WorkDir/JOBIPH09

>>> COPY $dir/vectors/$Project.$R.3B1g-6S.JobIph $WorkDir/JOBIPH10

>>> COPY $dir/vectors/$Project.$R.5B1g-1S.JobIph $WorkDir/JOBIPH11

>>> COPY $dir/vectors/$Project.$R.1B1u-3S.JobIph $WorkDir/JOBIPH12

>>> COPY $dir/vectors/$Project.$R.3B1u-6S.JobIph $WorkDir/JOBIPH13

>>> COPY $dir/vectors/$Project.$R.1B2g-5S.JobIph $WorkDir/JOBIPH14

>>> COPY $dir/vectors/$Project.$R.3B2g-6S.JobIph $WorkDir/JOBIPH15

>>> COPY $dir/vectors/$Project.$R.5B2g-1S.JobIph $WorkDir/JOBIPH16

>>> COPY $dir/vectors/$Project.$R.1B3g-5S.JobIph $WorkDir/JOBIPH17

>>> COPY $dir/vectors/$Project.$R.3B3g-6S.JobIph $WorkDir/JOBIPH18

>>> COPY $dir/vectors/$Project.$R.5B3g-1S.JobIph $WorkDir/JOBIPH19

>>> COPY $dir/vectors/$Project.$R.1Au-5S.JobIph $WorkDir/JOBIPH20

>>> COPY $dir/vectors/$Project.$R.3Au-6S.JobIph $WorkDir/JOBIPH21

>>> COPY $dir/vectors/$Project.$R.5Au-1S.JobIph $WorkDir/JOBIPH22

&RASSI

OMEGa
NROF=23 12 3 3 5 6 1 5 6 1 5 6 1 3 6 5 6 1 5 6 1 5 6 1
1 2 3 4 5 6 7 8 9 10 11 12
1 2 3
1 2 3
1 2 3 4 5
1 2 3 4 5 6
1
1 2 3 4 5
1 2 3 4 5 6
1
1 2 3 4 5
1 2 3 4 5 6
1
1 2 3
1 2 3 4 5 6
1 2 3 4 5
1 2 3 4 5 6
1
1 2 3 4 5
1 2 3 4 5 6
1
1 2 3 4 5
1 2 3 4 5 6
1
EJOB

-- ----------------------------------

>>> COPY /home/tecumseh/project/molecule/O2/OpenMolcas/vectors/O2.0.8500.1Ag-12S.JobIph /scratch/tecumseh/WorkSpace/O2.0.8500/JOBIPH

>>> COPY /home/tecumseh/project/molecule/O2/OpenMolcas/vectors/O2.0.8500.3Ag-3S.JobIph /scratch/tecumseh/WorkSpace/O2.0.8500/JOBIPH01

>>> COPY /home/tecumseh/project/molecule/O2/OpenMolcas/vectors/O2.0.8500.5Ag-3S.JobIph /scratch/tecumseh/WorkSpace/O2.0.8500/JOBIPH02

>>> COPY /home/tecumseh/project/molecule/O2/OpenMolcas/vectors/O2.0.8500.1B3u-5S.JobIph /scratch/tecumseh/WorkSpace/O2.0.8500/JOBIPH03

>>> COPY /home/tecumseh/project/molecule/O2/OpenMolcas/vectors/O2.0.8500.3B3u-6S.JobIph /scratch/tecumseh/WorkSpace/O2.0.8500/JOBIPH04

>>> COPY /home/tecumseh/project/molecule/O2/OpenMolcas/vectors/O2.0.8500.5B3u-1S.JobIph /scratch/tecumseh/WorkSpace/O2.0.8500/JOBIPH05

>>> COPY /home/tecumseh/project/molecule/O2/OpenMolcas/vectors/O2.0.8500.1B2u-5S.JobIph /scratch/tecumseh/WorkSpace/O2.0.8500/JOBIPH06

>>> COPY /home/tecumseh/project/molecule/O2/OpenMolcas/vectors/O2.0.8500.3B2u-6S.JobIph /scratch/tecumseh/WorkSpace/O2.0.8500/JOBIPH07

>>> COPY /home/tecumseh/project/molecule/O2/OpenMolcas/vectors/O2.0.8500.5B2u-1S.JobIph /scratch/tecumseh/WorkSpace/O2.0.8500/JOBIPH08

>>> COPY /home/tecumseh/project/molecule/O2/OpenMolcas/vectors/O2.0.8500.1B1g-5S.JobIph /scratch/tecumseh/WorkSpace/O2.0.8500/JOBIPH09

>>> COPY /home/tecumseh/project/molecule/O2/OpenMolcas/vectors/O2.0.8500.3B1g-6S.JobIph /scratch/tecumseh/WorkSpace/O2.0.8500/JOBIPH10

>>> COPY /home/tecumseh/project/molecule/O2/OpenMolcas/vectors/O2.0.8500.5B1g-1S.JobIph /scratch/tecumseh/WorkSpace/O2.0.8500/JOBIPH11

>>> COPY /home/tecumseh/project/molecule/O2/OpenMolcas/vectors/O2.0.8500.1B1u-3S.JobIph /scratch/tecumseh/WorkSpace/O2.0.8500/JOBIPH12

>>> COPY /home/tecumseh/project/molecule/O2/OpenMolcas/vectors/O2.0.8500.3B1u-6S.JobIph /scratch/tecumseh/WorkSpace/O2.0.8500/JOBIPH13

>>> COPY /home/tecumseh/project/molecule/O2/OpenMolcas/vectors/O2.0.8500.1B2g-5S.JobIph /scratch/tecumseh/WorkSpace/O2.0.8500/JOBIPH14

>>> COPY /home/tecumseh/project/molecule/O2/OpenMolcas/vectors/O2.0.8500.3B2g-6S.JobIph /scratch/tecumseh/WorkSpace/O2.0.8500/JOBIPH15

>>> COPY /home/tecumseh/project/molecule/O2/OpenMolcas/vectors/O2.0.8500.5B2g-1S.JobIph /scratch/tecumseh/WorkSpace/O2.0.8500/JOBIPH16

>>> COPY /home/tecumseh/project/molecule/O2/OpenMolcas/vectors/O2.0.8500.1B3g-5S.JobIph /scratch/tecumseh/WorkSpace/O2.0.8500/JOBIPH17

>>> COPY /home/tecumseh/project/molecule/O2/OpenMolcas/vectors/O2.0.8500.3B3g-6S.JobIph /scratch/tecumseh/WorkSpace/O2.0.8500/JOBIPH18

>>> COPY /home/tecumseh/project/molecule/O2/OpenMolcas/vectors/O2.0.8500.5B3g-1S.JobIph /scratch/tecumseh/WorkSpace/O2.0.8500/JOBIPH19

>>> COPY /home/tecumseh/project/molecule/O2/OpenMolcas/vectors/O2.0.8500.1Au-5S.JobIph /scratch/tecumseh/WorkSpace/O2.0.8500/JOBIPH20

>>> COPY /home/tecumseh/project/molecule/O2/OpenMolcas/vectors/O2.0.8500.3Au-6S.JobIph /scratch/tecumseh/WorkSpace/O2.0.8500/JOBIPH21

>>> COPY /home/tecumseh/project/molecule/O2/OpenMolcas/vectors/O2.0.8500.5Au-1S.JobIph /scratch/tecumseh/WorkSpace/O2.0.8500/JOBIPH22

--- Start Module: rassi at Thu Apr 17 10:59:30 2025 ---

()()()()()()()()()()()()()()()()()()()()()()()()()()()()()()()()()()()()()()()()()()()()()()()()()()

                                               &RASSI

                                   only a single process is used
                       available to each process: 2.0 GB of memory, 1 thread?
                                            pid: 298602
()()()()()()()()()()()()()()()()()()()()()()()()()()()()()()()()()()()()()()()()()()()()()()()()()()


      ********************************************************************************
      *                                                                              *
      *                             General data section                             *
      *                                                                              *
      ********************************************************************************

   Specific data for JOBIPH file JOBIPH
   -------------------------------------

   Header from SEWARD:
                            O2, D2h symmetry, aug-cc-pVTZ                      
        Integrals generated by Gateway/Seward, Wed Apr 16 15:47:34 2025        

   CASSCF title (first line only):
       O2, 1Ag 12S                                                             

  STATE IRREP:                1
  SPIN MULTIPLICITY:          1
  ACTIVE ELECTRONS:          12
  MAX RAS1 HOLES:             0
  MAX RAS3 ELECTRONS:         0
  NR OF CONFIG:              60

   Specific data for JOBIPH file JOBIPH01
   -------------------------------------

   Header from SEWARD:
                            O2, D2h symmetry, aug-cc-pVTZ                      
        Integrals generated by Gateway/Seward, Wed Apr 16 15:47:34 2025        

   CASSCF title (first line only):
       O2, 3Ag  3S                                                             

  STATE IRREP:                1
  SPIN MULTIPLICITY:          3
  ACTIVE ELECTRONS:          12
  MAX RAS1 HOLES:             0
  MAX RAS3 ELECTRONS:         0
  NR OF CONFIG:              42

   Specific data for JOBIPH file JOBIPH02
   -------------------------------------

   Header from SEWARD:
                            O2, D2h symmetry, aug-cc-pVTZ                      
        Integrals generated by Gateway/Seward, Wed Apr 16 15:47:34 2025        

   CASSCF title (first line only):
       O2, 5Ag  3S                                                             

  STATE IRREP:                1
  SPIN MULTIPLICITY:          5
  ACTIVE ELECTRONS:          12
  MAX RAS1 HOLES:             0
  MAX RAS3 ELECTRONS:         0
  NR OF CONFIG:              10

   Specific data for JOBIPH file JOBIPH03
   -------------------------------------

   Header from SEWARD:
                            O2, D2h symmetry, aug-cc-pVTZ                      
        Integrals generated by Gateway/Seward, Thu Apr 17 10:59:20 2025        

   CASSCF title (first line only):
       O2, 1B3u 5S                                                             

  STATE IRREP:                2
  SPIN MULTIPLICITY:          1
  ACTIVE ELECTRONS:          12
  MAX RAS1 HOLES:             0
  MAX RAS3 ELECTRONS:         0
  NR OF CONFIG:              40

   Specific data for JOBIPH file JOBIPH04
   -------------------------------------

   Header from SEWARD:
                            O2, D2h symmetry, aug-cc-pVTZ                      
        Integrals generated by Gateway/Seward, Wed Apr 16 15:47:34 2025        

   CASSCF title (first line only):
       O2, 3B3u 6S                                                             

  STATE IRREP:                2
  SPIN MULTIPLICITY:          3
  ACTIVE ELECTRONS:          12
  MAX RAS1 HOLES:             0
  MAX RAS3 ELECTRONS:         0
  NR OF CONFIG:              48

   Specific data for JOBIPH file JOBIPH05
   -------------------------------------

   Header from SEWARD:
                            O2, D2h symmetry, aug-cc-pVTZ                      
        Integrals generated by Gateway/Seward, Wed Apr 16 15:47:34 2025        

   CASSCF title (first line only):
       O2, 5B3u 1S                                                             

  STATE IRREP:                2
  SPIN MULTIPLICITY:          5
  ACTIVE ELECTRONS:          12
  MAX RAS1 HOLES:             0
  MAX RAS3 ELECTRONS:         0
  NR OF CONFIG:               8

   Specific data for JOBIPH file JOBIPH06
   -------------------------------------

   Header from SEWARD:
                            O2, D2h symmetry, aug-cc-pVTZ                      
        Integrals generated by Gateway/Seward, Thu Apr 17 10:59:20 2025        

   CASSCF title (first line only):
       O2, 1B2u 5S                                                             

  STATE IRREP:                3
  SPIN MULTIPLICITY:          1
  ACTIVE ELECTRONS:          12
  MAX RAS1 HOLES:             0
  MAX RAS3 ELECTRONS:         0
  NR OF CONFIG:              40

   Specific data for JOBIPH file JOBIPH07
   -------------------------------------

   Header from SEWARD:
                            O2, D2h symmetry, aug-cc-pVTZ                      
        Integrals generated by Gateway/Seward, Wed Apr 16 15:47:34 2025        

   CASSCF title (first line only):
       O2, 3B2u 6S                                                             

  STATE IRREP:                3
  SPIN MULTIPLICITY:          3
  ACTIVE ELECTRONS:          12
  MAX RAS1 HOLES:             0
  MAX RAS3 ELECTRONS:         0
  NR OF CONFIG:              48

   Specific data for JOBIPH file JOBIPH08
   -------------------------------------

   Header from SEWARD:
                            O2, D2h symmetry, aug-cc-pVTZ                      
        Integrals generated by Gateway/Seward, Wed Apr 16 15:47:34 2025        

   CASSCF title (first line only):
       O2, 5B2u 1S                                                             

  STATE IRREP:                3
  SPIN MULTIPLICITY:          5
  ACTIVE ELECTRONS:          12
  MAX RAS1 HOLES:             0
  MAX RAS3 ELECTRONS:         0
  NR OF CONFIG:               8

   Specific data for JOBIPH file JOBIPH09
   -------------------------------------

   Header from SEWARD:
                            O2, D2h symmetry, aug-cc-pVTZ                      
        Integrals generated by Gateway/Seward, Wed Apr 16 15:47:34 2025        

   CASSCF title (first line only):
       O2, 1B1g 5S                                                             

  STATE IRREP:                4
  SPIN MULTIPLICITY:          1
  ACTIVE ELECTRONS:          12
  MAX RAS1 HOLES:             0
  MAX RAS3 ELECTRONS:         0
  NR OF CONFIG:              36

   Specific data for JOBIPH file JOBIPH10
   -------------------------------------

   Header from SEWARD:
                            O2, D2h symmetry, aug-cc-pVTZ                      
        Integrals generated by Gateway/Seward, Wed Apr 16 15:47:34 2025        

   CASSCF title (first line only):
       O2, 3B1g 6S                                                             

  STATE IRREP:                4
  SPIN MULTIPLICITY:          3
  ACTIVE ELECTRONS:          12
  MAX RAS1 HOLES:             0
  MAX RAS3 ELECTRONS:         0
  NR OF CONFIG:              48

   Specific data for JOBIPH file JOBIPH11
   -------------------------------------

   Header from SEWARD:
                            O2, D2h symmetry, aug-cc-pVTZ                      
        Integrals generated by Gateway/Seward, Wed Apr 16 15:47:34 2025        

   CASSCF title (first line only):
       O2, 5B1g 1S                                                             

  STATE IRREP:                4
  SPIN MULTIPLICITY:          5
  ACTIVE ELECTRONS:          12
  MAX RAS1 HOLES:             0
  MAX RAS3 ELECTRONS:         0
  NR OF CONFIG:              12

   Specific data for JOBIPH file JOBIPH12
   -------------------------------------

   Header from SEWARD:
                            O2, D2h symmetry, aug-cc-pVTZ                      
        Integrals generated by Gateway/Seward, Thu Apr 17 10:59:20 2025        

   CASSCF title (first line only):
       O2, 1B1u 3S                                                             

  STATE IRREP:                5
  SPIN MULTIPLICITY:          1
  ACTIVE ELECTRONS:          12
  MAX RAS1 HOLES:             0
  MAX RAS3 ELECTRONS:         0
  NR OF CONFIG:              44

   Specific data for JOBIPH file JOBIPH13
   -------------------------------------

   Header from SEWARD:
                            O2, D2h symmetry, aug-cc-pVTZ                      
        Integrals generated by Gateway/Seward, Wed Apr 16 15:47:34 2025        

   CASSCF title (first line only):
       O2, 3B1u 6S                                                             

  STATE IRREP:                5
  SPIN MULTIPLICITY:          3
  ACTIVE ELECTRONS:          12
  MAX RAS1 HOLES:             0
  MAX RAS3 ELECTRONS:         0
  NR OF CONFIG:              48

   Specific data for JOBIPH file JOBIPH14
   -------------------------------------

   Header from SEWARD:
                            O2, D2h symmetry, aug-cc-pVTZ                      
        Integrals generated by Gateway/Seward, Wed Apr 16 15:47:34 2025        

   CASSCF title (first line only):
       O2, 1B2g 5S                                                             

  STATE IRREP:                6
  SPIN MULTIPLICITY:          1
  ACTIVE ELECTRONS:          12
  MAX RAS1 HOLES:             0
  MAX RAS3 ELECTRONS:         0
  NR OF CONFIG:              40

   Specific data for JOBIPH file JOBIPH15
   -------------------------------------

   Header from SEWARD:
                            O2, D2h symmetry, aug-cc-pVTZ                      
        Integrals generated by Gateway/Seward, Wed Apr 16 15:47:34 2025        

   CASSCF title (first line only):
       O2, 3B2g 6S                                                             

  STATE IRREP:                6
  SPIN MULTIPLICITY:          3
  ACTIVE ELECTRONS:          12
  MAX RAS1 HOLES:             0
  MAX RAS3 ELECTRONS:         0
  NR OF CONFIG:              48

   Specific data for JOBIPH file JOBIPH16
   -------------------------------------

   Header from SEWARD:
                            O2, D2h symmetry, aug-cc-pVTZ                      
        Integrals generated by Gateway/Seward, Wed Apr 16 15:47:34 2025        

   CASSCF title (first line only):
       O2, 5B2g 1S                                                             

  STATE IRREP:                6
  SPIN MULTIPLICITY:          5
  ACTIVE ELECTRONS:          12
  MAX RAS1 HOLES:             0
  MAX RAS3 ELECTRONS:         0
  NR OF CONFIG:               8

   Specific data for JOBIPH file JOBIPH17
   -------------------------------------

   Header from SEWARD:
                            O2, D2h symmetry, aug-cc-pVTZ                      
        Integrals generated by Gateway/Seward, Wed Apr 16 15:47:34 2025        

   CASSCF title (first line only):
       O2, 1B3g 5S                                                             

  STATE IRREP:                7
  SPIN MULTIPLICITY:          1
  ACTIVE ELECTRONS:          12
  MAX RAS1 HOLES:             0
  MAX RAS3 ELECTRONS:         0
  NR OF CONFIG:              40

   Specific data for JOBIPH file JOBIPH18
   -------------------------------------

   Header from SEWARD:
                            O2, D2h symmetry, aug-cc-pVTZ                      
        Integrals generated by Gateway/Seward, Wed Apr 16 15:47:34 2025        

   CASSCF title (first line only):
       O2, 3B3g 6S                                                             

  STATE IRREP:                7
  SPIN MULTIPLICITY:          3
  ACTIVE ELECTRONS:          12
  MAX RAS1 HOLES:             0
  MAX RAS3 ELECTRONS:         0
  NR OF CONFIG:              48

   Specific data for JOBIPH file JOBIPH19
   -------------------------------------

   Header from SEWARD:
                            O2, D2h symmetry, aug-cc-pVTZ                      
        Integrals generated by Gateway/Seward, Wed Apr 16 15:47:34 2025        

   CASSCF title (first line only):
       O2, 5B3g 1S                                                             

  STATE IRREP:                7
  SPIN MULTIPLICITY:          5
  ACTIVE ELECTRONS:          12
  MAX RAS1 HOLES:             0
  MAX RAS3 ELECTRONS:         0
  NR OF CONFIG:               8

   Specific data for JOBIPH file JOBIPH20
   -------------------------------------

   Header from SEWARD:
                            O2, D2h symmetry, aug-cc-pVTZ                      
        Integrals generated by Gateway/Seward, Thu Apr 17 10:59:20 2025        

   CASSCF title (first line only):
       O2, 1Au 5S                                                              

  STATE IRREP:                8
  SPIN MULTIPLICITY:          1
  ACTIVE ELECTRONS:          12
  MAX RAS1 HOLES:             0
  MAX RAS3 ELECTRONS:         0
  NR OF CONFIG:              36

   Specific data for JOBIPH file JOBIPH21
   -------------------------------------

   Header from SEWARD:
                            O2, D2h symmetry, aug-cc-pVTZ                      
        Integrals generated by Gateway/Seward, Wed Apr 16 15:47:34 2025        

   CASSCF title (first line only):
       O2, 3Au 6S                                                              

  STATE IRREP:                8
  SPIN MULTIPLICITY:          3
  ACTIVE ELECTRONS:          12
  MAX RAS1 HOLES:             0
  MAX RAS3 ELECTRONS:         0
  NR OF CONFIG:              48

   Specific data for JOBIPH file JOBIPH22
   -------------------------------------

   Header from SEWARD:
                            O2, D2h symmetry, aug-cc-pVTZ                      
        Integrals generated by Gateway/Seward, Wed Apr 16 15:47:34 2025        

   CASSCF title (first line only):
       O2, 5Au 1S                                                              

  STATE IRREP:                8
  SPIN MULTIPLICITY:          5
  ACTIVE ELECTRONS:          12
  MAX RAS1 HOLES:             0
  MAX RAS3 ELECTRONS:         0
  NR OF CONFIG:              12
 ###############################################################################
 ###############################################################################
 ###                                                                         ###
 ###                                                                         ###
 ###    WARNING: EJOB used when HEFF is available, possible                  ###
 ###    extra interaction between states is ignored!                         ###
 ###                                                                         ###
 ###                                                                         ###
 ###############################################################################
 ###############################################################################

   The following data are common to all the states:
   ------------------------------------------------
   (note: frozen counts as inactive, deleted as secondary)

      Nr of irreps: 8

                 Total     No./Irrep 
      Irrep                  1   2   3   4   5   6   7   8
                            ag b3u b2u b1g b1u b2g b3g  au

      INACTIVE       2       1   0   0   0   1   0   0   0
      ACTIVE         8       2   1   1   0   2   1   1   0
      SECONDARY     82      16  10  10   5  16  10  10   5
      BASIS         92      19  11  11   5  19  11  11   5

      RAS1           0       0   0   0   0   0   0   0   0
      RAS2           8       2   1   1   0   2   1   1   0
      RAS3           0       0   0   0   0   0   0   0   0

        MATRIX ELEMENTS WILL BE COMPUTED FOR THE FOLLOWING ONE-ELECTRON OPERATORS, UNLESS ZERO BY SYMMETRY.
   (Herm=Hermitian, Anti=Antihermitian, Sing=Singlet operator, Trip=Triplet operator)
     MLTPL  0   1 (HERMSING)     MLTPL  1   1 (HERMSING)     MLTPL  1   2 (HERMSING)
     MLTPL  1   3 (HERMSING)     MLTPL  2   1 (HERMSING)     MLTPL  2   2 (HERMSING)
     MLTPL  2   3 (HERMSING)     MLTPL  2   4 (HERMSING)     MLTPL  2   5 (HERMSING)
     MLTPL  2   6 (HERMSING)     VELOCITY   1 (ANTISING)     VELOCITY   2 (ANTISING)
     VELOCITY   3 (ANTISING)     ANGMOM     1 (ANTISING)     ANGMOM     2 (ANTISING)
     ANGMOM     3 (ANTISING)     MLTPV  2   1 (ANTISING)     MLTPV  2   2 (ANTISING)
     MLTPV  2   3 (ANTISING)     MLTPV  2   4 (ANTISING)     MLTPV  2   5 (ANTISING)
     MLTPV  2   6 (ANTISING)

       EIGENSTATES OF A SPIN-FREE HAMILTONIAN WILL BE COMPUTED BASED ON:

  a Hamiltonian matrix assumed to be diagonal with energies read from the wavefunction file(s).

  Nr of states:                   99

   State:        1   2   3   4   5   6   7   8   9  10  11  12  13  14  15  16  17  18  19  20
  JobIph:        1   1   1   1   1   1   1   1   1   1   1   1   2   2   2   3   3   3   4   4
 Root nr:        1   2   3   4   5   6   7   8   9  10  11  12   1   2   3   1   2   3   1   2

   State:       21  22  23  24  25  26  27  28  29  30  31  32  33  34  35  36  37  38  39  40
  JobIph:        4   4   4   5   5   5   5   5   5   6   7   7   7   7   7   8   8   8   8   8
 Root nr:        3   4   5   1   2   3   4   5   6   1   1   2   3   4   5   1   2   3   4   5

   State:       41  42  43  44  45  46  47  48  49  50  51  52  53  54  55  56  57  58  59  60
  JobIph:        8   9  10  10  10  10  10  11  11  11  11  11  11  12  13  13  13  14  14  14
 Root nr:        6   1   1   2   3   4   5   1   2   3   4   5   6   1   1   2   3   1   2   3

   State:       61  62  63  64  65  66  67  68  69  70  71  72  73  74  75  76  77  78  79  80
  JobIph:       14  14  14  15  15  15  15  15  16  16  16  16  16  16  17  18  18  18  18  18
 Root nr:        4   5   6   1   2   3   4   5   1   2   3   4   5   6   1   1   2   3   4   5

   State:       81  82  83  84  85  86  87  88  89  90  91  92  93  94  95  96  97  98  99
  JobIph:       19  19  19  19  19  19  20  21  21  21  21  21  22  22  22  22  22  22  23
 Root nr:        1   2   3   4   5   6   1   1   2   3   4   5   1   2   3   4   5   6   1

  HAMILTONIAN MATRIX FOR THE ORIGINAL STATES:

  Diagonal, with energies
   -149.64404438   -149.63700866   -149.41312073   -149.41279376   -149.40051890
   -149.35018048   -149.33768137   -149.30577857   -149.24691664   -149.22187837
   -149.17291282   -149.14011915   -149.40250038   -149.40069379   -149.30286328
   -149.49221497   -149.49062895   -149.38368845   -149.52553112   -149.37409375
   -149.34659503   -149.30304718   -149.26153939   -149.54943502   -149.45274339
   -149.42478810   -149.38920001   -149.38473473   -149.34442222   -149.47255261
   -149.52553112   -149.37409375   -149.34659503   -149.30304718   -149.26153939
   -149.54943502   -149.45274339   -149.42478810   -149.38920001   -149.38473473
   -149.34442222   -149.47255261   -149.64404438   -149.41279376   -149.33768137
   -149.22187837   -149.17291282   -149.65692317   -149.48115073   -149.43464765
   -149.40250038   -149.30286328   -149.25754247   -149.49221497   -149.43590286
   -149.38737449   -149.21042068   -149.60892750   -149.60715631   -149.46121617
   -149.45600945   -149.40104442   -149.32420813   -149.49405242   -149.44803863
   -149.38288417   -149.35932980   -149.31029273   -149.51533822   -149.50586057
   -149.46198962   -149.45238460   -149.42251278   -149.37714843   -149.54989178
   -149.49405242   -149.44803863   -149.38288417   -149.35932980   -149.31029273
   -149.51533822   -149.50586057   -149.46198962   -149.45238460   -149.42251278
   -149.37714843   -149.54989178   -149.61803860   -149.43590286   -149.37314166
   -149.24862739   -149.21042068   -149.60892750   -149.51984681   -149.46121617
   -149.43055152   -149.32420813   -149.28178235   -149.52356415

      OVERLAP MATRIX FOR THE ORIGINAL STATES:

  Diagonal, with elements
      1.00000000      1.00000000      1.00000000      1.00000000      1.00000000
      1.00000000      1.00000000      1.00000000      1.00000000      1.00000000
      1.00000000      1.00000000      1.00000000      1.00000000      1.00000000
      1.00000000      1.00000000      1.00000000      1.00000000      1.00000000
      1.00000000      1.00000000      1.00000000      1.00000000      1.00000000
      1.00000000      1.00000000      1.00000000      1.00000000      1.00000000
      1.00000000      1.00000000      1.00000000      1.00000000      1.00000000
      1.00000000      1.00000000      1.00000000      1.00000000      1.00000000
      1.00000000      1.00000000      1.00000000      1.00000000      1.00000000
      1.00000000      1.00000000      1.00000000      1.00000000      1.00000000
      1.00000000      1.00000000      1.00000000      1.00000000      1.00000000
      1.00000000      1.00000000      1.00000000      1.00000000      1.00000000
      1.00000000      1.00000000      1.00000000      1.00000000      1.00000000
      1.00000000      1.00000000      1.00000000      1.00000000      1.00000000
      1.00000000      1.00000000      1.00000000      1.00000000      1.00000000
      1.00000000      1.00000000      1.00000000      1.00000000      1.00000000
      1.00000000      1.00000000      1.00000000      1.00000000      1.00000000
      1.00000000      1.00000000      1.00000000      1.00000000      1.00000000
      1.00000000      1.00000000      1.00000000      1.00000000      1.00000000
      1.00000000      1.00000000      1.00000000      1.00000000

::    RASSI State    1     Total energy:    -149.64404438032292
::    RASSI State    2     Total energy:    -149.63700866417844
::    RASSI State    3     Total energy:    -149.41312072541947
::    RASSI State    4     Total energy:    -149.41279376245458
::    RASSI State    5     Total energy:    -149.40051889646725
::    RASSI State    6     Total energy:    -149.35018048475945
::    RASSI State    7     Total energy:    -149.33768137297557
::    RASSI State    8     Total energy:    -149.30577856813110
::    RASSI State    9     Total energy:    -149.24691664116901
::    RASSI State   10     Total energy:    -149.22187837425633
::    RASSI State   11     Total energy:    -149.17291281823464
::    RASSI State   12     Total energy:    -149.14011914507654
::    RASSI State   13     Total energy:    -149.40250037626393
::    RASSI State   14     Total energy:    -149.40069378648198
::    RASSI State   15     Total energy:    -149.30286328449091
::    RASSI State   16     Total energy:    -149.49221496578562
::    RASSI State   17     Total energy:    -149.49062895481680
::    RASSI State   18     Total energy:    -149.38368844680102
::    RASSI State   19     Total energy:    -149.52553112203486
::    RASSI State   20     Total energy:    -149.37409374667084
::    RASSI State   21     Total energy:    -149.34659502585677
::    RASSI State   22     Total energy:    -149.30304718488065
::    RASSI State   23     Total energy:    -149.26153938725048
::    RASSI State   24     Total energy:    -149.54943501746101
::    RASSI State   25     Total energy:    -149.45274339065222
::    RASSI State   26     Total energy:    -149.42478810171900
::    RASSI State   27     Total energy:    -149.38920000916468
::    RASSI State   28     Total energy:    -149.38473473484484
::    RASSI State   29     Total energy:    -149.34442221604024
::    RASSI State   30     Total energy:    -149.47255260905362
::    RASSI State   31     Total energy:    -149.52553112203481
::    RASSI State   32     Total energy:    -149.37409374667087
::    RASSI State   33     Total energy:    -149.34659502585663
::    RASSI State   34     Total energy:    -149.30304718488068
::    RASSI State   35     Total energy:    -149.26153938725054
::    RASSI State   36     Total energy:    -149.54943501746092
::    RASSI State   37     Total energy:    -149.45274339065222
::    RASSI State   38     Total energy:    -149.42478810171897
::    RASSI State   39     Total energy:    -149.38920000916477
::    RASSI State   40     Total energy:    -149.38473473484495
::    RASSI State   41     Total energy:    -149.34442221604024
::    RASSI State   42     Total energy:    -149.47255260905365
::    RASSI State   43     Total energy:    -149.64404438032298
::    RASSI State   44     Total energy:    -149.41279376245456
::    RASSI State   45     Total energy:    -149.33768137297551
::    RASSI State   46     Total energy:    -149.22187837425636
::    RASSI State   47     Total energy:    -149.17291281823472
::    RASSI State   48     Total energy:    -149.65692316786058
::    RASSI State   49     Total energy:    -149.48115073139519
::    RASSI State   50     Total energy:    -149.43464765156679
::    RASSI State   51     Total energy:    -149.40250037626382
::    RASSI State   52     Total energy:    -149.30286328449088
::    RASSI State   53     Total energy:    -149.25754246537508
::    RASSI State   54     Total energy:    -149.49221496578556
::    RASSI State   55     Total energy:    -149.43590285723934
::    RASSI State   56     Total energy:    -149.38737449381401
::    RASSI State   57     Total energy:    -149.21042067936898
::    RASSI State   58     Total energy:    -149.60892750281170
::    RASSI State   59     Total energy:    -149.60715631244386
::    RASSI State   60     Total energy:    -149.46121617341720
::    RASSI State   61     Total energy:    -149.45600945463804
::    RASSI State   62     Total energy:    -149.40104442150258
::    RASSI State   63     Total energy:    -149.32420812934745
::    RASSI State   64     Total energy:    -149.49405241869508
::    RASSI State   65     Total energy:    -149.44803862882583
::    RASSI State   66     Total energy:    -149.38288416962297
::    RASSI State   67     Total energy:    -149.35932979549642
::    RASSI State   68     Total energy:    -149.31029272643025
::    RASSI State   69     Total energy:    -149.51533821772847
::    RASSI State   70     Total energy:    -149.50586056942342
::    RASSI State   71     Total energy:    -149.46198961501557
::    RASSI State   72     Total energy:    -149.45238460276661
::    RASSI State   73     Total energy:    -149.42251277864290
::    RASSI State   74     Total energy:    -149.37714843358731
::    RASSI State   75     Total energy:    -149.54989178057832
::    RASSI State   76     Total energy:    -149.49405241869502
::    RASSI State   77     Total energy:    -149.44803862882594
::    RASSI State   78     Total energy:    -149.38288416962314
::    RASSI State   79     Total energy:    -149.35932979549651
::    RASSI State   80     Total energy:    -149.31029272643033
::    RASSI State   81     Total energy:    -149.51533821772841
::    RASSI State   82     Total energy:    -149.50586056942333
::    RASSI State   83     Total energy:    -149.46198961501548
::    RASSI State   84     Total energy:    -149.45238460276661
::    RASSI State   85     Total energy:    -149.42251277864287
::    RASSI State   86     Total energy:    -149.37714843358722
::    RASSI State   87     Total energy:    -149.54989178057832
::    RASSI State   88     Total energy:    -149.61803860433346
::    RASSI State   89     Total energy:    -149.43590285723923
::    RASSI State   90     Total energy:    -149.37314165780123
::    RASSI State   91     Total energy:    -149.24862739180347
::    RASSI State   92     Total energy:    -149.21042067936907
::    RASSI State   93     Total energy:    -149.60892750281167
::    RASSI State   94     Total energy:    -149.51984680639646
::    RASSI State   95     Total energy:    -149.46121617341720
::    RASSI State   96     Total energy:    -149.43055151883863
::    RASSI State   97     Total energy:    -149.32420812934762
::    RASSI State   98     Total energy:    -149.28178234924147
::    RASSI State   99     Total energy:    -149.52356414952774



      ****************************************************************************************************
      *                                                                                                  *
      *                                         Spin-free section                                        *
      *                                                                                                  *
      *                 Note: index according to input order, order according to energy.                 *
      *                                                                                                  *
      ****************************************************************************************************



  SPIN-FREE ENERGIES:
  (Shifted by EMIN (a.u.) =       -149.6569231679)

 SF State       Relative EMIN(au)   Rel lowest level(eV)    D:o, cm**(-1)      L_eff   Abs_M

    48             0.0000000000        0.0000000000              0.0000         1.7     0.0
    43             0.0128787875        0.3504496621           2826.5671         2.3     2.0
     1             0.0128787875        0.3504496621           2826.5671         2.3     2.0
     2             0.0199145037        0.5419012516           4370.7284         1.4     0.0
    88             0.0388845635        1.0581028771           8534.1752         1.0     0.0
    58             0.0479956650        1.3060285798          10533.8309         2.1     2.0
    93             0.0479956650        1.3060285798          10533.8309         2.1     2.0
    59             0.0497668554        1.3542251250          10922.5622         1.1     0.0
    75             0.1070313873        2.9124724198          23490.6743         1.7     1.0
    87             0.1070313873        2.9124724198          23490.6743         1.7     1.0
    24             0.1074881504        2.9249015774          23590.9222         2.0     1.0
    36             0.1074881504        2.9249015774          23590.9222         2.0     1.0
    19             0.1313920458        3.5753597086          28837.2208         1.2     1.0
    31             0.1313920458        3.5753597086          28837.2208         1.2     1.0
    99             0.1333590183        3.6288837572          29268.9214         0.7     0.0
    94             0.1370763615        3.7300378170          30084.7839         1.9     0.0
    69             0.1415849501        3.8527227647          31074.3047         1.9     1.0
    81             0.1415849501        3.8527227647          31074.3047         1.9     1.0
    70             0.1510625984        4.1106227134          33154.4081         1.0     1.0
    82             0.1510625984        4.1106227134          33154.4081         1.0     1.0
    64             0.1628707492        4.4319388637          35745.9976         1.7     1.0
    76             0.1628707492        4.4319388637          35745.9976         1.7     1.0
    16             0.1647082021        4.4819385045          36149.2719         1.9     2.0
    54             0.1647082021        4.4819385045          36149.2719         1.9     2.0
    17             0.1662942130        4.5250960616          36497.3611         0.8     0.0
    49             0.1757724365        4.7830116601          38577.5907         1.6     0.0
    42             0.1843705588        5.0169784881          40464.6604         0.9     1.0
    30             0.1843705588        5.0169784881          40464.6604         0.9     1.0
    71             0.1949335528        5.3044121988          42782.9697         2.1     1.0
    83             0.1949335528        5.3044121988          42782.9697         2.1     1.0
    60             0.1957069944        5.3254586168          42952.7205         2.3     2.0
    95             0.1957069944        5.3254586168          42952.7205         2.3     2.0
    61             0.2009137132        5.4671406526          44095.4631         1.5     0.0
    37             0.2041797772        5.5560147812          44812.2813         2.0     1.0
    25             0.2041797772        5.5560147812          44812.2813         2.0     1.0
    72             0.2045385651        5.5657778970          44891.0262         2.9     3.0
    84             0.2045385651        5.5657778970          44891.0262         2.9     3.0
    77             0.2088845390        5.6840378725          45844.8572         3.1     1.0
    65             0.2088845390        5.6840378725          45844.8572         3.1     1.0
    55             0.2210203106        6.0142690405          48508.3512         2.5     2.0
    89             0.2210203106        6.0142690405          48508.3512         2.5     2.0
    50             0.2222755163        6.0484249269          48783.8370         1.0     0.0
    96             0.2263716490        6.1598863767          49682.8342         1.5     0.0
    26             0.2321350661        6.3167169460          50947.7581         1.8     1.0
    38             0.2321350661        6.3167169460          50947.7581         1.8     1.0
    73             0.2344103892        6.3786316411          51447.1338         1.2     1.0
    85             0.2344103892        6.3786316411          51447.1338         1.2     1.0
     3             0.2438024424        6.6342024290          53508.4512         1.4     0.0
     4             0.2441294054        6.6430995445          53580.2113         2.7     2.0
    44             0.2441294054        6.6430995445          53580.2113         2.7     2.0
    13             0.2544227916        6.9231968519          55839.3484         2.5     2.0
    51             0.2544227916        6.9231968519          55839.3484         2.5     2.0
    62             0.2558787464        6.9628153993          56158.8935         1.3     0.0
    14             0.2562293814        6.9723566643          56235.8490         1.7     0.0
     5             0.2564042714        6.9771156640          56274.2329         2.7     0.0
    39             0.2677231587        7.2851182783          58758.4416         2.9     3.0
    27             0.2677231587        7.2851182783          58758.4416         2.9     3.0
    56             0.2695486740        7.3347930816          59159.0959         1.6     0.0
    40             0.2721884330        7.4066245825          59738.4560         1.3     1.0
    28             0.2721884330        7.4066245825          59738.4560         1.3     1.0
    18             0.2732347211        7.4350955306          59968.0897         1.1     0.0
    78             0.2740389982        7.4569810275          60144.6081         3.6     3.0
    66             0.2740389982        7.4569810275          60144.6081         3.6     3.0
    74             0.2797747343        7.6130583562          61403.4567         0.9     1.0
    86             0.2797747343        7.6130583562          61403.4567         0.9     1.0
    32             0.2828294212        7.6961806217          62073.8830         1.9     1.0
    20             0.2828294212        7.6961806217          62073.8830         1.9     1.0
    90             0.2837815101        7.7220882797          62282.8423         2.2     0.0
    79             0.2975933724        8.0979281996          65314.1957         2.2     1.0
    67             0.2975933724        8.0979281996          65314.1957         2.2     1.0
     6             0.3067426831        8.3468936280          67322.2373         1.4     0.0
    21             0.3103281420        8.4444589351          68109.1546         1.8     1.0
    33             0.3103281420        8.4444589351          68109.1546         1.8     1.0
    29             0.3125009518        8.5035841022          68586.0312         1.0     1.0
    41             0.3125009518        8.5035841022          68586.0312         1.0     1.0
     7             0.3192417949        8.6870117865          70065.4752         2.4     2.0
    45             0.3192417949        8.6870117865          70065.4752         2.4     2.0
    97             0.3327150385        9.0536374228          73022.5104         2.1     2.0
    63             0.3327150385        9.0536374228          73022.5104         2.1     2.0
    80             0.3466304414        9.4322948264          76076.5884         1.7     1.0
    68             0.3466304414        9.4322948264          76076.5884         1.7     1.0
     8             0.3511445997        9.5551313314          77067.3316         1.7     0.0
    34             0.3538759830        9.6294560560          77666.8009         2.8     3.0
    22             0.3538759830        9.6294560560          77666.8009         2.8     3.0
    15             0.3540598834        9.6344602406          77707.1624         2.1     2.0
    52             0.3540598834        9.6344602406          77707.1624         2.1     2.0
    98             0.3751408186       10.2081017121          82333.8929         1.1     0.0
    35             0.3953837806       10.7589407696          86776.7095         1.5     1.0
    23             0.3953837806       10.7589407696          86776.7095         1.5     1.0
    53             0.3993807025       10.8677025545          87653.9325         1.0     0.0
    91             0.4082957761       11.1102940649          89610.5649         1.3     0.0
     9             0.4100065267       11.1568459612          89986.0313         1.2     0.0
    46             0.4350447936       11.8381719131          95481.2957         3.8     4.0
    10             0.4350447936       11.8381719131          95481.2957         3.8     4.0
    92             0.4465024885       12.1499516741          97995.9691         2.0     2.0
    57             0.4465024885       12.1499516741          97995.9691         2.0     2.0
    47             0.4840103496       13.1705925707         106227.9931         2.0     2.0
    11             0.4840103496       13.1705925707         106227.9931         2.0     2.0
    12             0.5168040228       14.0629538775         113425.3724         0.8     0.0

++ Dipole transition strengths (spin-free states):
   -----------------------------------------------
     for osc. strength at least  1.00000000E-05

      From   To        Osc. strength     Einstein coefficients Ax, Ay, Az (sec-1)    Total A (sec-1)
     -----------------------------------------------------------------------------------------------
        48   24       2.82321618E-05  0.00000000E+00  1.04803599E+04  0.00000000E+00  1.04803599E+04
        48   36       2.82321618E-05  1.04803599E+04  0.00000000E+00  0.00000000E+00  1.04803599E+04
        48   94       8.72792562E-03  0.00000000E+00  0.00000000E+00  5.26922878E+06  5.26922878E+06
        48   37       3.21301087E-05  4.30376480E+04  0.00000000E+00  0.00000000E+00  4.30376480E+04
        48   25       3.21301087E-05  0.00000000E+00  4.30376480E+04  0.00000000E+00  4.30376480E+04
        48   96       1.77722739E-04  0.00000000E+00  0.00000000E+00  2.92615920E+05  2.92615920E+05
        48   26       1.41040270E-05  0.00000000E+00  2.44194294E+04  0.00000000E+00  2.44194294E+04
        48   38       1.41040270E-05  2.44194294E+04  0.00000000E+00  0.00000000E+00  2.44194294E+04
        48   40       2.64759336E-05  6.30233518E+04  0.00000000E+00  0.00000000E+00  6.30233518E+04
        48   28       2.64759336E-05  0.00000000E+00  6.30233518E+04  0.00000000E+00  6.30233518E+04
        48   29       1.56621978E-04  0.00000000E+00  4.91435219E+05  0.00000000E+00  4.91435219E+05
        48   41       1.56621978E-04  4.91435219E+05  0.00000000E+00  0.00000000E+00  4.91435219E+05
        48   98       5.65214699E-04  0.00000000E+00  0.00000000E+00  2.55571825E+06  2.55571825E+06
        43   19       1.19053406E-04  0.00000000E+00  5.37262570E+04  0.00000000E+00  5.37262570E+04
        43   31       1.19053406E-04  5.37262570E+04  0.00000000E+00  0.00000000E+00  5.37262570E+04
        43   89       3.33201465E-03  0.00000000E+00  0.00000000E+00  4.63804803E+06  4.63804803E+06
        43   32       7.09305170E-04  1.66078231E+06  0.00000000E+00  0.00000000E+00  1.66078231E+06
        43   20       7.09305170E-04  0.00000000E+00  1.66078231E+06  0.00000000E+00  1.66078231E+06
        43   21       7.60685863E-05  0.00000000E+00  2.16243115E+05  0.00000000E+00  2.16243115E+05
        43   33       7.60685863E-05  2.16243115E+05  0.00000000E+00  0.00000000E+00  2.16243115E+05
        43   35       1.03882717E-03  4.88346862E+06  0.00000000E+00  0.00000000E+00  4.88346862E+06
        43   23       1.03882717E-03  0.00000000E+00  4.88346862E+06  0.00000000E+00  4.88346862E+06
        43   92       1.23717605E-04  0.00000000E+00  0.00000000E+00  7.47426361E+05  7.47426361E+05
         1   19       1.19053406E-04  5.37262570E+04  0.00000000E+00  0.00000000E+00  5.37262570E+04
         1   31       1.19053406E-04  0.00000000E+00  5.37262570E+04  0.00000000E+00  5.37262570E+04
         1   55       3.33201465E-03  0.00000000E+00  0.00000000E+00  4.63804803E+06  4.63804803E+06
         1   32       7.09305170E-04  0.00000000E+00  1.66078231E+06  0.00000000E+00  1.66078231E+06
         1   20       7.09305170E-04  1.66078231E+06  0.00000000E+00  0.00000000E+00  1.66078231E+06
         1   21       7.60685863E-05  2.16243115E+05  0.00000000E+00  0.00000000E+00  2.16243115E+05
         1   33       7.60685863E-05  0.00000000E+00  2.16243115E+05  0.00000000E+00  2.16243115E+05
         1   35       1.03882717E-03  0.00000000E+00  4.88346862E+06  0.00000000E+00  4.88346862E+06
         1   23       1.03882717E-03  4.88346862E+06  0.00000000E+00  0.00000000E+00  4.88346862E+06
         1   57       1.23717605E-04  0.00000000E+00  0.00000000E+00  7.47426361E+05  7.47426361E+05
         2   19       2.27405121E-04  9.08000092E+04  0.00000000E+00  0.00000000E+00  9.08000092E+04
         2   31       2.27405121E-04  0.00000000E+00  9.08000092E+04  0.00000000E+00  9.08000092E+04
         2   56       1.74420346E-03  0.00000000E+00  0.00000000E+00  3.49233656E+06  3.49233656E+06
         2   32       9.00364837E-04  0.00000000E+00  1.99967706E+06  0.00000000E+00  1.99967706E+06
         2   20       9.00364837E-04  1.99967706E+06  0.00000000E+00  0.00000000E+00  1.99967706E+06
         2   21       1.71391386E-04  4.64444570E+05  0.00000000E+00  0.00000000E+00  4.64444570E+05
         2   33       1.71391386E-04  0.00000000E+00  4.64444570E+05  0.00000000E+00  4.64444570E+05
         2   35       1.07211727E-03  0.00000000E+00  4.85626066E+06  0.00000000E+00  4.85626066E+06
         2   23       1.07211727E-03  4.85626066E+06  0.00000000E+00  0.00000000E+00  4.85626066E+06
        88   64       1.14592623E-04  0.00000000E+00  5.65997016E+04  0.00000000E+00  5.65997016E+04
        88   76       1.14592623E-04  5.65997016E+04  0.00000000E+00  0.00000000E+00  5.65997016E+04
        88   77       7.65111079E-04  7.10449301E+05  0.00000000E+00  0.00000000E+00  7.10449301E+05
        88   65       7.65111079E-04  0.00000000E+00  7.10449301E+05  0.00000000E+00  7.10449301E+05
        88   79       1.43856200E-04  3.09358391E+05  0.00000000E+00  0.00000000E+00  3.09358391E+05
        88   67       1.43856200E-04  0.00000000E+00  3.09358391E+05  0.00000000E+00  3.09358391E+05
        88   80       3.09861031E-04  9.42892831E+05  0.00000000E+00  0.00000000E+00  9.42892831E+05
        88   68       3.09861031E-04  0.00000000E+00  9.42892831E+05  0.00000000E+00  9.42892831E+05
        58   69       2.93384543E-04  8.25658339E+04  0.00000000E+00  0.00000000E+00  8.25658339E+04
        58   81       2.93384543E-04  0.00000000E+00  8.25658339E+04  0.00000000E+00  8.25658339E+04
        58   71       7.87027587E-05  5.45969553E+04  0.00000000E+00  0.00000000E+00  5.45969553E+04
        58   83       7.87027587E-05  0.00000000E+00  5.45969553E+04  0.00000000E+00  5.45969553E+04
        58   72       3.72608992E-05  2.93380311E+04  0.00000000E+00  0.00000000E+00  2.93380311E+04
        58   84       3.72608992E-05  0.00000000E+00  2.93380311E+04  0.00000000E+00  2.93380311E+04
        58   73       8.44355461E-05  9.42750182E+04  0.00000000E+00  0.00000000E+00  9.42750182E+04
        58   85       8.44355461E-05  0.00000000E+00  9.42750182E+04  0.00000000E+00  9.42750182E+04
        58   13       2.43661080E-04  0.00000000E+00  0.00000000E+00  3.33603488E+05  3.33603488E+05
        58   74       1.00877371E-04  1.74121768E+05  0.00000000E+00  0.00000000E+00  1.74121768E+05
        58   86       1.00877371E-04  0.00000000E+00  1.74121768E+05  0.00000000E+00  1.74121768E+05
        93   69       2.93384543E-04  0.00000000E+00  8.25658339E+04  0.00000000E+00  8.25658339E+04
        93   81       2.93384543E-04  8.25658339E+04  0.00000000E+00  0.00000000E+00  8.25658339E+04
        93   71       7.87027587E-05  0.00000000E+00  5.45969553E+04  0.00000000E+00  5.45969553E+04
        93   83       7.87027587E-05  5.45969553E+04  0.00000000E+00  0.00000000E+00  5.45969553E+04
        93   72       3.72608992E-05  0.00000000E+00  2.93380311E+04  0.00000000E+00  2.93380311E+04
        93   84       3.72608992E-05  2.93380311E+04  0.00000000E+00  0.00000000E+00  2.93380311E+04
        93   73       8.44355461E-05  0.00000000E+00  9.42750182E+04  0.00000000E+00  9.42750182E+04
        93   85       8.44355461E-05  9.42750182E+04  0.00000000E+00  0.00000000E+00  9.42750182E+04
        93   51       2.43661080E-04  0.00000000E+00  0.00000000E+00  3.33603488E+05  3.33603488E+05
        93   74       1.00877371E-04  0.00000000E+00  1.74121768E+05  0.00000000E+00  1.74121768E+05
        93   86       1.00877371E-04  1.74121768E+05  0.00000000E+00  0.00000000E+00  1.74121768E+05
        59   69       2.06706204E-04  5.59913513E+04  0.00000000E+00  0.00000000E+00  5.59913513E+04
        59   81       2.06706205E-04  0.00000000E+00  5.59913513E+04  0.00000000E+00  5.59913513E+04
        59   70       2.13093746E-04  7.02528546E+04  0.00000000E+00  0.00000000E+00  7.02528546E+04
        59   82       2.13093746E-04  0.00000000E+00  7.02528546E+04  0.00000000E+00  7.02528546E+04
        59   71       5.98811280E-05  4.05447707E+04  0.00000000E+00  0.00000000E+00  4.05447707E+04
        59   83       5.98811280E-05  0.00000000E+00  4.05447707E+04  0.00000000E+00  4.05447707E+04
        59   14       2.43348634E-04  0.00000000E+00  0.00000000E+00  3.33289989E+05  3.33289989E+05
        59   74       1.80493984E-04  3.06802604E+05  0.00000000E+00  0.00000000E+00  3.06802604E+05
        59   86       1.80493984E-04  0.00000000E+00  3.06802604E+05  0.00000000E+00  3.06802604E+05
        75   99       7.55978535E-05  0.00000000E+00  1.68361937E+03  0.00000000E+00  1.68361937E+03
        75   30       8.86377089E-03  0.00000000E+00  0.00000000E+00  1.70344625E+06  1.70344625E+06
        87   99       7.55978535E-05  1.68361937E+03  0.00000000E+00  0.00000000E+00  1.68361937E+03
        87   42       8.86377089E-03  0.00000000E+00  0.00000000E+00  1.70344625E+06  1.70344625E+06
        24   69       6.42108158E-05  0.00000000E+00  0.00000000E+00  2.39853637E+03  2.39853637E+03
        24   70       1.57946549E-03  0.00000000E+00  0.00000000E+00  9.63573424E+04  9.63573424E+04
        24   71       3.85123668E-04  0.00000000E+00  0.00000000E+00  9.46204597E+04  9.46204597E+04
        24   50       1.07101058E-04  0.00000000E+00  4.53411805E+04  0.00000000E+00  4.53411805E+04
        24   73       2.67069068E-03  0.00000000E+00  0.00000000E+00  1.38232423E+06  1.38232423E+06
        24   13       2.87639868E-05  1.99530071E+04  0.00000000E+00  0.00000000E+00  1.99530071E+04
        24   51       2.87639868E-05  0.00000000E+00  1.99530071E+04  0.00000000E+00  1.99530071E+04
        24   74       4.93430011E-03  0.00000000E+00  0.00000000E+00  4.70586390E+06  4.70586390E+06
        24   53       1.21716801E-04  0.00000000E+00  3.33201876E+05  0.00000000E+00  3.33201876E+05
        36   81       6.42108158E-05  0.00000000E+00  0.00000000E+00  2.39853637E+03  2.39853637E+03
        36   82       1.57946549E-03  0.00000000E+00  0.00000000E+00  9.63573424E+04  9.63573424E+04
        36   83       3.85123668E-04  0.00000000E+00  0.00000000E+00  9.46204597E+04  9.46204597E+04
        36   50       1.07101058E-04  4.53411805E+04  0.00000000E+00  0.00000000E+00  4.53411805E+04
        36   85       2.67069068E-03  0.00000000E+00  0.00000000E+00  1.38232423E+06  1.38232423E+06
        36   13       2.87639868E-05  0.00000000E+00  1.99530071E+04  0.00000000E+00  1.99530071E+04
        36   51       2.87639868E-05  1.99530071E+04  0.00000000E+00  0.00000000E+00  1.99530071E+04
        36   86       4.93430011E-03  0.00000000E+00  0.00000000E+00  4.70586390E+06  4.70586390E+06
        36   53       1.21716801E-04  3.33201876E+05  0.00000000E+00  0.00000000E+00  3.33201876E+05
        19   64       1.12515880E-03  0.00000000E+00  0.00000000E+00  3.58227047E+04  3.58227047E+04
        19   65       1.88797615E-05  0.00000000E+00  0.00000000E+00  3.64272725E+03  3.64272725E+03
        19    3       2.10247871E-04  8.53602052E+04  0.00000000E+00  0.00000000E+00  8.53602052E+04
        19    4       1.07530108E-05  4.39113394E+03  0.00000000E+00  0.00000000E+00  4.39113394E+03
        19   44       1.07530108E-05  0.00000000E+00  4.39113394E+03  0.00000000E+00  4.39113394E+03
        19    5       1.97354952E-05  9.90977707E+03  0.00000000E+00  0.00000000E+00  9.90977707E+03
        19   67       9.96253230E-04  0.00000000E+00  0.00000000E+00  8.84198140E+05  8.84198140E+05
        19    6       5.47200461E-05  5.40595012E+04  0.00000000E+00  0.00000000E+00  5.40595012E+04
        19    7       1.45213532E-04  1.64641460E+05  0.00000000E+00  0.00000000E+00  1.64641460E+05
        19   45       1.45213532E-04  0.00000000E+00  1.64641460E+05  0.00000000E+00  1.64641460E+05
        19   68       2.01405843E-03  0.00000000E+00  0.00000000E+00  2.99793658E+06  2.99793658E+06
        19    8       1.72025131E-05  2.66913563E+04  0.00000000E+00  0.00000000E+00  2.66913563E+04
        19    9       1.32352390E-05  3.30103433E+04  0.00000000E+00  0.00000000E+00  3.30103433E+04
        19   47       4.87004489E-05  0.00000000E+00  1.94559997E+05  0.00000000E+00  1.94559997E+05
        19   11       4.87004489E-05  1.94559997E+05  0.00000000E+00  0.00000000E+00  1.94559997E+05
        19   12       6.55312867E-05  3.12759127E+05  0.00000000E+00  0.00000000E+00  3.12759127E+05
        31   76       1.12515880E-03  0.00000000E+00  0.00000000E+00  3.58227047E+04  3.58227047E+04
        31   77       1.88797615E-05  0.00000000E+00  0.00000000E+00  3.64272725E+03  3.64272725E+03
        31    3       2.10247871E-04  0.00000000E+00  8.53602052E+04  0.00000000E+00  8.53602052E+04
        31    4       1.07530108E-05  0.00000000E+00  4.39113394E+03  0.00000000E+00  4.39113394E+03
        31   44       1.07530108E-05  4.39113394E+03  0.00000000E+00  0.00000000E+00  4.39113394E+03
        31    5       1.97354952E-05  0.00000000E+00  9.90977707E+03  0.00000000E+00  9.90977707E+03
        31   79       9.96253230E-04  0.00000000E+00  0.00000000E+00  8.84198140E+05  8.84198140E+05
        31    6       5.47200461E-05  0.00000000E+00  5.40595012E+04  0.00000000E+00  5.40595012E+04
        31    7       1.45213532E-04  0.00000000E+00  1.64641460E+05  0.00000000E+00  1.64641460E+05
        31   45       1.45213532E-04  1.64641460E+05  0.00000000E+00  0.00000000E+00  1.64641460E+05
        31   80       2.01405843E-03  0.00000000E+00  0.00000000E+00  2.99793658E+06  2.99793658E+06
        31    8       1.72025131E-05  0.00000000E+00  2.66913563E+04  0.00000000E+00  2.66913563E+04
        31    9       1.32352390E-05  0.00000000E+00  3.30103433E+04  0.00000000E+00  3.30103433E+04
        31   47       4.87004489E-05  1.94559997E+05  0.00000000E+00  0.00000000E+00  1.94559997E+05
        31   11       4.87004489E-05  0.00000000E+00  1.94559997E+05  0.00000000E+00  1.94559997E+05
        31   12       6.55312867E-05  0.00000000E+00  3.12759127E+05  0.00000000E+00  3.12759127E+05
        94   49       8.14731923E-03  0.00000000E+00  0.00000000E+00  3.91975974E+05  3.91975974E+05
        94   50       4.18076483E-03  0.00000000E+00  0.00000000E+00  9.75073143E+05  9.75073143E+05
        94   73       2.84982176E-05  0.00000000E+00  8.67477005E+03  0.00000000E+00  8.67477005E+03
        94   85       2.84982176E-05  8.67477005E+03  0.00000000E+00  0.00000000E+00  8.67477005E+03
        94   53       2.34268396E-03  0.00000000E+00  0.00000000E+00  5.17887636E+06  5.17887636E+06
        69   25       2.54562444E-03  0.00000000E+00  0.00000000E+00  3.20466105E+05  3.20466105E+05
        69   96       1.33593110E-04  0.00000000E+00  3.08567653E+04  0.00000000E+00  3.08567653E+04
        69   26       5.78914722E-04  0.00000000E+00  0.00000000E+00  1.52511818E+05  1.52511818E+05
        69   62       1.05629970E-05  4.43346573E+03  0.00000000E+00  0.00000000E+00  4.43346573E+03
        69   28       4.76943107E-05  0.00000000E+00  0.00000000E+00  2.61388801E+04  2.61388801E+04
        69   29       2.60407688E-03  0.00000000E+00  0.00000000E+00  2.44416282E+06  2.44416282E+06
        69   98       1.48157219E-05  0.00000000E+00  2.59666107E+04  0.00000000E+00  2.59666107E+04
        81   37       2.54562444E-03  0.00000000E+00  0.00000000E+00  3.20466105E+05  3.20466105E+05
        81   96       1.33593110E-04  3.08567653E+04  0.00000000E+00  0.00000000E+00  3.08567653E+04
        81   38       5.78914722E-04  0.00000000E+00  0.00000000E+00  1.52511818E+05  1.52511818E+05
        81   62       1.05629970E-05  0.00000000E+00  4.43346573E+03  0.00000000E+00  4.43346573E+03
        81   40       4.76943107E-05  0.00000000E+00  0.00000000E+00  2.61388801E+04  2.61388801E+04
        81   41       2.60407688E-03  0.00000000E+00  0.00000000E+00  2.44416282E+06  2.44416282E+06
        81   98       1.48157219E-05  2.59666107E+04  0.00000000E+00  0.00000000E+00  2.59666107E+04
        70   60       3.39232607E-05  2.17241292E+03  0.00000000E+00  0.00000000E+00  2.17241292E+03
        70   95       3.39232607E-05  0.00000000E+00  2.17241292E+03  0.00000000E+00  2.17241292E+03
        70   61       1.30782250E-05  1.04426191E+03  0.00000000E+00  0.00000000E+00  1.04426191E+03
        70   25       4.82129531E-04  0.00000000E+00  0.00000000E+00  4.37063578E+04  4.37063578E+04
        70   96       2.30382505E-05  0.00000000E+00  4.19811879E+03  0.00000000E+00  4.19811879E+03
        70   26       1.91664922E-03  0.00000000E+00  0.00000000E+00  4.04762532E+05  4.04762532E+05
        70   62       1.43986912E-04  5.08265100E+04  0.00000000E+00  0.00000000E+00  5.08265100E+04
        70   28       8.01524442E-04  0.00000000E+00  0.00000000E+00  3.77834159E+05  3.77834159E+05
        70   97       1.70249943E-05  0.00000000E+00  1.80501298E+04  0.00000000E+00  1.80501298E+04
        70   63       1.70249943E-05  1.80501298E+04  0.00000000E+00  0.00000000E+00  1.80501298E+04
        82   60       3.39232607E-05  0.00000000E+00  2.17241292E+03  0.00000000E+00  2.17241292E+03
        82   95       3.39232607E-05  2.17241292E+03  0.00000000E+00  0.00000000E+00  2.17241292E+03
        82   61       1.30782250E-05  0.00000000E+00  1.04426191E+03  0.00000000E+00  1.04426191E+03
        82   37       4.82129531E-04  0.00000000E+00  0.00000000E+00  4.37063578E+04  4.37063578E+04
        82   96       2.30382505E-05  4.19811879E+03  0.00000000E+00  0.00000000E+00  4.19811879E+03
        82   38       1.91664922E-03  0.00000000E+00  0.00000000E+00  4.04762532E+05  4.04762532E+05
        82   62       1.43986912E-04  0.00000000E+00  5.08265100E+04  0.00000000E+00  5.08265100E+04
        82   40       8.01524442E-04  0.00000000E+00  0.00000000E+00  3.77834159E+05  3.77834159E+05
        82   97       1.70249943E-05  1.80501298E+04  0.00000000E+00  0.00000000E+00  1.80501298E+04
        82   63       1.70249943E-05  0.00000000E+00  1.80501298E+04  0.00000000E+00  1.80501298E+04
        64   55       1.00016377E-05  1.08661299E+03  0.00000000E+00  0.00000000E+00  1.08661299E+03
        64   89       1.00016377E-05  0.00000000E+00  1.08661299E+03  0.00000000E+00  1.08661299E+03
        64   56       2.41035431E-05  8.81334736E+03  0.00000000E+00  0.00000000E+00  8.81334736E+03
        64   20       4.25756894E-05  0.00000000E+00  0.00000000E+00  1.96850205E+04  1.96850205E+04
        64   21       2.28847550E-03  0.00000000E+00  0.00000000E+00  1.59878569E+06  1.59878569E+06
        64   23       4.45435786E-05  0.00000000E+00  0.00000000E+00  7.73732046E+04  7.73732046E+04
        76   55       1.00016377E-05  0.00000000E+00  1.08661299E+03  0.00000000E+00  1.08661299E+03
        76   89       1.00016377E-05  1.08661299E+03  0.00000000E+00  0.00000000E+00  1.08661299E+03
        76   56       2.41035431E-05  0.00000000E+00  8.81334736E+03  0.00000000E+00  8.81334736E+03
        76   32       4.25756894E-05  0.00000000E+00  0.00000000E+00  1.96850205E+04  1.96850205E+04
        76   33       2.28847550E-03  0.00000000E+00  0.00000000E+00  1.59878569E+06  1.59878569E+06
        76   35       4.45435786E-05  0.00000000E+00  0.00000000E+00  7.73732046E+04  7.73732046E+04
        49   37       3.39591597E-05  8.80499227E+02  0.00000000E+00  0.00000000E+00  8.80499227E+02
        49   25       3.39591597E-05  0.00000000E+00  8.80499227E+02  0.00000000E+00  8.80499227E+02
        49   40       1.98356375E-05  5.92454816E+03  0.00000000E+00  0.00000000E+00  5.92454816E+03
        49   28       1.98356375E-05  0.00000000E+00  5.92454816E+03  0.00000000E+00  5.92454816E+03
        49   29       4.33655020E-05  0.00000000E+00  2.60479445E+04  0.00000000E+00  2.60479445E+04
        49   41       4.33655020E-05  2.60479445E+04  0.00000000E+00  0.00000000E+00  2.60479445E+04
        49   98       8.66822928E-04  0.00000000E+00  0.00000000E+00  1.10701586E+06  1.10701586E+06
        42   18       7.61738901E-05  0.00000000E+00  1.93272614E+04  0.00000000E+00  1.93272614E+04
        30   18       7.61738901E-05  1.93272614E+04  0.00000000E+00  0.00000000E+00  1.93272614E+04
        71   26       2.97287689E-05  0.00000000E+00  0.00000000E+00  1.32193171E+03  1.32193171E+03
        71   28       7.33243681E-03  0.00000000E+00  0.00000000E+00  1.40608333E+06  1.40608333E+06
        71   29       2.15044989E-04  0.00000000E+00  0.00000000E+00  9.55023436E+04  9.55023436E+04
        71   98       1.01853850E-05  0.00000000E+00  1.06275443E+04  0.00000000E+00  1.06275443E+04
        83   38       2.97287689E-05  0.00000000E+00  0.00000000E+00  1.32193171E+03  1.32193171E+03
        83   40       7.33243681E-03  0.00000000E+00  0.00000000E+00  1.40608333E+06  1.40608333E+06
        83   41       2.15044989E-04  0.00000000E+00  0.00000000E+00  9.55023436E+04  9.55023436E+04
        83   98       1.01853850E-05  1.06275443E+04  0.00000000E+00  0.00000000E+00  1.06275443E+04
        61   74       3.41260532E-05  6.81901645E+03  0.00000000E+00  0.00000000E+00  6.81901645E+03
        61   86       3.41260532E-05  0.00000000E+00  6.81901645E+03  0.00000000E+00  6.81901645E+03
        37   85       1.52135152E-04  0.00000000E+00  0.00000000E+00  4.46718906E+03  4.46718906E+03
        37   86       7.03035187E-04  0.00000000E+00  0.00000000E+00  1.29084351E+05  1.29084351E+05
        37   53       1.07590124E-05  1.31718578E+04  0.00000000E+00  0.00000000E+00  1.31718578E+04
        25   73       1.52135152E-04  0.00000000E+00  0.00000000E+00  4.46718906E+03  4.46718906E+03
        25   74       7.03035187E-04  0.00000000E+00  0.00000000E+00  1.29084351E+05  1.29084351E+05
        25   53       1.07590124E-05  0.00000000E+00  1.31718578E+04  0.00000000E+00  1.31718578E+04
        72   27       5.54007805E-03  0.00000000E+00  0.00000000E+00  7.10639199E+05  7.10639199E+05
        72   97       8.73607593E-05  0.00000000E+00  4.61151812E+04  0.00000000E+00  4.61151812E+04
        72   63       8.73607593E-05  4.61151812E+04  0.00000000E+00  0.00000000E+00  4.61151812E+04
        84   39       5.54007805E-03  0.00000000E+00  0.00000000E+00  7.10639199E+05  7.10639199E+05
        84   97       8.73607593E-05  4.61151812E+04  0.00000000E+00  0.00000000E+00  4.61151812E+04
        84   63       8.73607593E-05  0.00000000E+00  4.61151812E+04  0.00000000E+00  4.61151812E+04
        77   32       5.70612756E-03  0.00000000E+00  0.00000000E+00  1.00246358E+06  1.00246358E+06
        77   90       1.01159540E-04  1.82325007E+04  0.00000000E+00  0.00000000E+00  1.82325007E+04
        77   33       5.42352173E-04  0.00000000E+00  0.00000000E+00  1.79325314E+05  1.79325314E+05
        77   35       3.53478059E-03  0.00000000E+00  0.00000000E+00  3.95027641E+06  3.95027641E+06
        65   20       5.70612756E-03  0.00000000E+00  0.00000000E+00  1.00246358E+06  1.00246358E+06
        65   90       1.01159540E-04  0.00000000E+00  1.82325007E+04  0.00000000E+00  1.82325007E+04
        65   21       5.42352173E-04  0.00000000E+00  0.00000000E+00  1.79325314E+05  1.79325314E+05
        65   23       3.53478059E-03  0.00000000E+00  0.00000000E+00  3.95027641E+06  3.95027641E+06
        55    4       5.77166751E-03  0.00000000E+00  0.00000000E+00  9.90325714E+04  9.90325714E+04
        55    7       3.45382989E-03  0.00000000E+00  0.00000000E+00  1.07059402E+06  1.07059402E+06
        55   80       1.00843162E-05  0.00000000E+00  5.11218630E+03  0.00000000E+00  5.11218630E+03
        55   68       1.00843162E-05  5.11218630E+03  0.00000000E+00  0.00000000E+00  5.11218630E+03
        55   11       1.98237129E-03  0.00000000E+00  0.00000000E+00  4.40528978E+06  4.40528978E+06
        89   44       5.77166751E-03  0.00000000E+00  0.00000000E+00  9.90325713E+04  9.90325713E+04
        89   45       3.45382989E-03  0.00000000E+00  0.00000000E+00  1.07059402E+06  1.07059402E+06
        89   80       1.00843162E-05  5.11218630E+03  0.00000000E+00  0.00000000E+00  5.11218630E+03
        89   68       1.00843162E-05  0.00000000E+00  5.11218630E+03  0.00000000E+00  5.11218630E+03
        89   47       1.98237129E-03  0.00000000E+00  0.00000000E+00  4.40528978E+06  4.40528978E+06
        50   98       1.33885284E-04  0.00000000E+00  0.00000000E+00  1.00522103E+05  1.00522103E+05
        26   73       4.87799807E-05  0.00000000E+00  0.00000000E+00  8.11406812E+00  8.11406812E+00
        26   74       7.19304600E-04  0.00000000E+00  0.00000000E+00  5.24518941E+04  5.24518941E+04
        38   85       4.87799807E-05  0.00000000E+00  0.00000000E+00  8.11406812E+00  8.11406812E+00
        38   86       7.19304600E-04  0.00000000E+00  0.00000000E+00  5.24518941E+04  5.24518941E+04
        73   28       3.50293636E-05  0.00000000E+00  0.00000000E+00  1.60628299E+03  1.60628299E+03
        73   29       3.49523277E-03  0.00000000E+00  0.00000000E+00  6.84832070E+05  6.84832070E+05
        73   97       6.02598609E-05  0.00000000E+00  1.87105746E+04  0.00000000E+00  1.87105746E+04
        73   63       6.02598609E-05  1.87105746E+04  0.00000000E+00  0.00000000E+00  1.87105746E+04
        73   98       1.67565159E-04  0.00000000E+00  1.06627845E+05  0.00000000E+00  1.06627845E+05
        85   40       3.50293636E-05  0.00000000E+00  0.00000000E+00  1.60628299E+03  1.60628299E+03
        85   41       3.49523277E-03  0.00000000E+00  0.00000000E+00  6.84832070E+05  6.84832070E+05
        85   97       6.02598609E-05  1.87105746E+04  0.00000000E+00  0.00000000E+00  1.87105746E+04
        85   63       6.02598609E-05  0.00000000E+00  1.87105746E+04  0.00000000E+00  1.87105746E+04
        85   98       1.67565159E-04  1.06627845E+05  0.00000000E+00  0.00000000E+00  1.06627845E+05
         3   56       5.53140191E-05  0.00000000E+00  0.00000000E+00  1.17807636E+03  1.17807636E+03
         3   21       1.68517711E-05  2.39626770E+03  0.00000000E+00  0.00000000E+00  2.39626770E+03
         3   33       1.68517711E-05  0.00000000E+00  2.39626770E+03  0.00000000E+00  2.39626770E+03
         4   32       3.65245052E-05  0.00000000E+00  1.75758974E+03  0.00000000E+00  1.75758974E+03
         4   20       3.65245052E-05  1.75758974E+03  0.00000000E+00  0.00000000E+00  1.75758974E+03
         4   21       2.32598664E-05  3.27504674E+03  0.00000000E+00  0.00000000E+00  3.27504674E+03
         4   33       2.32598664E-05  0.00000000E+00  3.27504674E+03  0.00000000E+00  3.27504674E+03
         4   34       2.04806272E-05  0.00000000E+00  7.92567221E+03  0.00000000E+00  7.92567221E+03
         4   22       2.04806272E-05  7.92567221E+03  0.00000000E+00  0.00000000E+00  7.92567221E+03
         4   35       5.66167036E-05  0.00000000E+00  4.16170560E+04  0.00000000E+00  4.16170560E+04
         4   23       5.66167036E-05  4.16170560E+04  0.00000000E+00  0.00000000E+00  4.16170560E+04
         4   57       1.13254580E-03  0.00000000E+00  0.00000000E+00  1.49029469E+06  1.49029469E+06
        44   32       3.65245052E-05  1.75758974E+03  0.00000000E+00  0.00000000E+00  1.75758974E+03
        44   20       3.65245052E-05  0.00000000E+00  1.75758974E+03  0.00000000E+00  1.75758974E+03
        44   21       2.32598664E-05  0.00000000E+00  3.27504674E+03  0.00000000E+00  3.27504674E+03
        44   33       2.32598664E-05  3.27504674E+03  0.00000000E+00  0.00000000E+00  3.27504674E+03
        44   34       2.04806272E-05  7.92567221E+03  0.00000000E+00  0.00000000E+00  7.92567221E+03
        44   22       2.04806272E-05  0.00000000E+00  7.92567221E+03  0.00000000E+00  7.92567221E+03
        44   35       5.66167036E-05  4.16170560E+04  0.00000000E+00  0.00000000E+00  4.16170560E+04
        44   23       5.66167036E-05  0.00000000E+00  4.16170560E+04  0.00000000E+00  4.16170560E+04
        44   92       1.13254580E-03  0.00000000E+00  0.00000000E+00  1.49029469E+06  1.49029469E+06
         5   56       2.33530984E-03  0.00000000E+00  0.00000000E+00  1.29639426E+04  1.29639426E+04
        39   15       1.84492357E-05  0.00000000E+00  4.41855638E+03  0.00000000E+00  4.41855638E+03
        39   52       1.84492357E-05  4.41855638E+03  0.00000000E+00  0.00000000E+00  4.41855638E+03
        27   15       1.84492357E-05  4.41855638E+03  0.00000000E+00  0.00000000E+00  4.41855638E+03
        27   52       1.84492357E-05  0.00000000E+00  4.41855638E+03  0.00000000E+00  4.41855638E+03
        56    6       4.80280175E-05  0.00000000E+00  0.00000000E+00  2.13477215E+03  2.13477215E+03
        56   80       6.70222387E-05  0.00000000E+00  1.27947894E+04  0.00000000E+00  1.27947894E+04
        56   68       6.70222387E-05  1.27947894E+04  0.00000000E+00  0.00000000E+00  1.27947894E+04
        56    8       9.72640987E-03  0.00000000E+00  0.00000000E+00  2.08065655E+06  2.08065655E+06
        56    9       2.24674766E-04  0.00000000E+00  0.00000000E+00  1.42415490E+05  1.42415490E+05
        56   12       4.23440489E-03  0.00000000E+00  0.00000000E+00  8.31753537E+06  8.31753537E+06
        40   15       1.97935547E-05  0.00000000E+00  4.26284603E+03  0.00000000E+00  4.26284603E+03
        40   52       1.97935547E-05  4.26284603E+03  0.00000000E+00  0.00000000E+00  4.26284603E+03
        40   53       1.37944452E-05  7.17028724E+03  0.00000000E+00  0.00000000E+00  7.17028724E+03
        28   15       1.97935547E-05  4.26284603E+03  0.00000000E+00  0.00000000E+00  4.26284603E+03
        28   52       1.97935547E-05  0.00000000E+00  4.26284603E+03  0.00000000E+00  4.26284603E+03
        28   53       1.37944452E-05  0.00000000E+00  7.17028724E+03  0.00000000E+00  7.17028724E+03
        78   34       9.03376722E-03  0.00000000E+00  0.00000000E+00  1.85006945E+06  1.85006945E+06
        66   22       9.03376722E-03  0.00000000E+00  0.00000000E+00  1.85006945E+06  1.85006945E+06
        74   29       8.84989635E-04  0.00000000E+00  0.00000000E+00  3.04537441E+04  3.04537441E+04
        74   98       4.26919551E-05  0.00000000E+00  1.24751228E+04  0.00000000E+00  1.24751228E+04
        86   41       8.84989635E-04  0.00000000E+00  0.00000000E+00  3.04537441E+04  3.04537441E+04
        86   98       4.26919551E-05  1.24751228E+04  0.00000000E+00  0.00000000E+00  1.24751228E+04
        32   79       2.28198091E-05  0.00000000E+00  0.00000000E+00  1.59818883E+02  1.59818883E+02
        32    6       1.50054371E-05  0.00000000E+00  2.75700259E+02  0.00000000E+00  2.75700259E+02
        32   80       1.05106857E-03  0.00000000E+00  0.00000000E+00  1.37466597E+05  1.37466597E+05
        32    8       1.16310079E-04  0.00000000E+00  1.74406494E+04  0.00000000E+00  1.74406494E+04
        32    9       1.38250449E-05  0.00000000E+00  7.18447944E+03  0.00000000E+00  7.18447944E+03
        20   67       2.28198091E-05  0.00000000E+00  0.00000000E+00  1.59818883E+02  1.59818883E+02
        20    6       1.50054371E-05  2.75700259E+02  0.00000000E+00  0.00000000E+00  2.75700259E+02
        20   68       1.05106857E-03  0.00000000E+00  0.00000000E+00  1.37466597E+05  1.37466597E+05
        20    8       1.16310079E-04  1.74406494E+04  0.00000000E+00  0.00000000E+00  1.74406494E+04
        20    9       1.38250449E-05  7.18447944E+03  0.00000000E+00  0.00000000E+00  7.18447944E+03
        90   80       1.30934811E-05  1.66173514E+03  0.00000000E+00  0.00000000E+00  1.66173514E+03
        90   68       1.30934811E-05  0.00000000E+00  1.66173514E+03  0.00000000E+00  1.66173514E+03
        79   33       5.78387806E-04  0.00000000E+00  0.00000000E+00  3.01378452E+03  3.01378452E+03
        79   35       5.60718348E-03  0.00000000E+00  0.00000000E+00  1.72285278E+06  1.72285278E+06
        79   91       8.95242219E-05  3.52505209E+04  0.00000000E+00  0.00000000E+00  3.52505209E+04
        79   92       3.90871658E-05  2.78475913E+04  0.00000000E+00  0.00000000E+00  2.78475913E+04
        79   57       3.90871658E-05  0.00000000E+00  2.78475913E+04  0.00000000E+00  2.78475913E+04
        67   21       5.78387806E-04  0.00000000E+00  0.00000000E+00  3.01378452E+03  3.01378452E+03
        67   23       5.60718348E-03  0.00000000E+00  0.00000000E+00  1.72285278E+06  1.72285278E+06
        67   91       8.95242219E-05  0.00000000E+00  3.52505209E+04  0.00000000E+00  3.52505209E+04
        67   92       3.90871658E-05  0.00000000E+00  2.78475913E+04  0.00000000E+00  2.78475913E+04
        67   57       3.90871658E-05  2.78475913E+04  0.00000000E+00  0.00000000E+00  2.78475913E+04
        21   68       1.25650775E-03  0.00000000E+00  0.00000000E+00  5.32040048E+04  5.32040048E+04
        21    9       5.46885779E-05  1.74586033E+04  0.00000000E+00  0.00000000E+00  1.74586033E+04
        33   80       1.25650775E-03  0.00000000E+00  0.00000000E+00  5.32040048E+04  5.32040048E+04
        33    9       5.46885779E-05  0.00000000E+00  1.74586033E+04  0.00000000E+00  1.74586033E+04
        29   53       3.90496326E-05  0.00000000E+00  9.47032682E+03  0.00000000E+00  9.47032682E+03
        41   53       3.90496326E-05  9.47032682E+03  0.00000000E+00  0.00000000E+00  9.47032682E+03
         7   57       4.44988774E-05  0.00000000E+00  0.00000000E+00  2.31551986E+04  2.31551986E+04
        45   92       4.44988774E-05  0.00000000E+00  0.00000000E+00  2.31551986E+04  2.31551986E+04
        80   35       1.99171424E-03  0.00000000E+00  0.00000000E+00  1.52106104E+05  1.52106104E+05
        80   92       6.43064181E-05  2.06088191E+04  0.00000000E+00  0.00000000E+00  2.06088191E+04
        80   57       6.43064181E-05  0.00000000E+00  2.06088191E+04  0.00000000E+00  2.06088191E+04
        68   23       1.99171424E-03  0.00000000E+00  0.00000000E+00  1.52106104E+05  1.52106104E+05
        68   92       6.43064181E-05  0.00000000E+00  2.06088191E+04  0.00000000E+00  2.06088191E+04
[...]
        89   79      --------------- below threshold  4.76697084E-04
        89   67      --------------- below threshold  4.76697085E-04
        89   45          4851.942380  3.45382989E-03  6.97469726E-05
        89   80            97.228898  1.00843162E-05  3.63909954E-04
        89   68            97.228898  1.00843162E-05  3.63909954E-04
        89   47      ---------------  1.98237129E-03 below threshold
        50   96      --------------- below threshold  1.12710971E-05
        50   26      --------------- below threshold  2.29718597E-04
        50   38      --------------- below threshold  2.29718597E-04
        50   40      --------------- below threshold  1.42987215E-03
        50   28      --------------- below threshold  1.42987215E-03
        50   29      --------------- below threshold  1.90831502E-04
        50   41      --------------- below threshold  1.90831502E-04
        50   98           324.215636  1.33885284E-04  3.15606670E-05
        96   73      --------------- below threshold  2.02792418E-02
        96   85      --------------- below threshold  2.02792418E-02
        96   74      --------------- below threshold  1.61939063E-03
        96   86      --------------- below threshold  1.61939063E-03
        26   73            84.136275  4.87799807E-05  3.07493853E-04
        26   13      --------------- below threshold  2.19066195E-04
        26   51      --------------- below threshold  2.19066195E-04
        26   14      --------------- below threshold  2.14171544E-03
        26   74      ---------------  7.19304600E-04 below threshold
        26   15      --------------- below threshold  6.99158208E-05
        26   52      --------------- below threshold  6.99158208E-05
        26   53      --------------- below threshold  1.17158752E-04
        38   85            84.136275  4.87799807E-05  3.07493853E-04
        38   13      --------------- below threshold  2.19066195E-04
        38   51      --------------- below threshold  2.19066195E-04
        38   14      --------------- below threshold  2.14171544E-03
        38   86      ---------------  7.19304600E-04 below threshold
        38   15      --------------- below threshold  6.99158208E-05
        38   52      --------------- below threshold  6.99158208E-05
        38   53      --------------- below threshold  1.17158752E-04
        73   62      --------------- below threshold  5.55454064E-05
        73   28      ---------------  3.50293636E-05 below threshold
        73   29           122.174754  3.49523277E-03  1.57319079E-03
        73   97            85.912436  6.02598609E-05  4.27752168E-04
        73   63            85.912436  6.02598609E-05  4.27752168E-04
        73   98      ---------------  1.67565159E-04 below threshold
        85   62      --------------- below threshold  5.55454064E-05
        85   40      ---------------  3.50293636E-05 below threshold
        85   41           122.174754  3.49523277E-03  1.57319079E-03
        85   97            85.912436  6.02598609E-05  4.27752168E-04
        85   63            85.912436  6.02598609E-05  4.27752168E-04
        85   98      ---------------  1.67565159E-04 below threshold
         3   56      ---------------  5.53140191E-05 below threshold
         3   21            81.116393  1.68517711E-05  8.92402108E-05
         3   33            81.116393  1.68517711E-05  8.92402108E-05
         4   32            84.175440  3.65245052E-05  2.30808980E-04
         4   20            84.175440  3.65245052E-05  2.30808980E-04
         4   21            96.562302  2.32598664E-05  6.76611640E-04
         4   33            96.562302  2.32598664E-05  6.76611640E-04
         4   34            88.577005  2.04806272E-05  1.79292972E-04
         4   22            88.577005  2.04806272E-05  1.79292972E-04
         4   35            48.418450  5.66167036E-05  1.09761541E-04
         4   23            48.418450  5.66167036E-05  1.09761541E-04
         4   57      ---------------  1.13254580E-03 below threshold
        44   32            84.175440  3.65245052E-05  2.30808980E-04
        44   20            84.175440  3.65245052E-05  2.30808980E-04
        44   21            96.562302  2.32598664E-05  6.76611640E-04
        44   33            96.562302  2.32598664E-05  6.76611640E-04
        44   34            88.577005  2.04806272E-05  1.79292972E-04
        44   22            88.577005  2.04806272E-05  1.79292972E-04
        44   35            48.418450  5.66167036E-05  1.09761541E-04
        44   23            48.418450  5.66167036E-05  1.09761541E-04
        44   92      ---------------  1.13254580E-03 below threshold
        13   39      --------------- below threshold  2.92876401E-03
        13   27      --------------- below threshold  2.92876401E-03
        13   40      --------------- below threshold  2.26136248E-03
        13   28      --------------- below threshold  2.26136248E-03
        13   29      --------------- below threshold  6.25080662E-04
        13   41      --------------- below threshold  6.25080662E-04
        51   39      --------------- below threshold  2.92876401E-03
        51   27      --------------- below threshold  2.92876401E-03
        51   40      --------------- below threshold  2.26136248E-03
        51   28      --------------- below threshold  2.26136248E-03
        51   29      --------------- below threshold  6.25080662E-04
        51   41      --------------- below threshold  6.25080662E-04
        62   74      --------------- below threshold  3.82825092E-04
        62   86      --------------- below threshold  3.82825092E-04
        14   40      --------------- below threshold  7.52414887E-03
        14   28      --------------- below threshold  7.52414887E-03
        14   29      --------------- below threshold  3.11591306E-05
        14   41      --------------- below threshold  3.11591306E-05
         5   56            68.985726  2.33530984E-03  7.52979044E-03
         5   32      --------------- below threshold  5.43180924E-04
         5   20      --------------- below threshold  5.43180924E-04
         5   21      --------------- below threshold  5.65846772E-04
         5   33      --------------- below threshold  5.65846772E-04
         5   35      --------------- below threshold  2.71498108E-05
         5   23      --------------- below threshold  2.71498107E-05
        39   15            99.001861  1.84492357E-05  1.84836316E-03
        39   52            99.001861  1.84492357E-05  1.84836316E-03
        27   15            99.001861  1.84492357E-05  1.84836316E-03
        27   52            99.001861  1.84492357E-05  1.84836316E-03
        56   79      --------------- below threshold  4.90657674E-04
        56   67      --------------- below threshold  4.90657674E-04
        56    6            99.303614  4.80280175E-05  6.89674963E-03
        56   80            14.603551  6.70222387E-05  5.84818167E-05
        56   68            14.603551  6.70222387E-05  5.84818167E-05
        56    9      ---------------  2.24674766E-04 below threshold
        56   12      ---------------  4.23440489E-03 below threshold
        40   86      --------------- below threshold  3.63234453E-04
        40   15            97.894893  1.97935547E-05  9.40263798E-04
        40   52            97.894893  1.97935547E-05  9.40263798E-04
        40   53            99.022321  1.37944452E-05  1.41093819E-03
        28   74      --------------- below threshold  3.63234453E-04
        28   15            97.894893  1.97935547E-05  9.40263798E-04
        28   52            97.894893  1.97935547E-05  9.40263798E-04
        28   53            99.022321  1.37944452E-05  1.41093819E-03
        78   34           350.831965  9.03376722E-03  2.00379918E-03
        78   92      --------------- below threshold  1.99288300E-03
        78   57      --------------- below threshold  1.99288300E-03
        66   22           350.831965  9.03376722E-03  2.00379918E-03
        66   92      --------------- below threshold  1.99288300E-03
        66   57      --------------- below threshold  1.99288300E-03
        74   97      --------------- below threshold  1.35161299E-03
        74   63      --------------- below threshold  1.35161299E-03
        74   98            98.333596  4.26919551E-05  2.56192058E-03
        86   97      --------------- below threshold  1.35161299E-03
        86   63      --------------- below threshold  1.35161299E-03
        86   98            98.333596  4.26919551E-05  2.56192058E-03
        32   79            97.390753  2.28198091E-05  8.74574451E-04
        32    6            99.783482  1.50054371E-05  6.93034772E-03
        32    7      --------------- below threshold  1.75756559E-03
        32   45      --------------- below threshold  1.75756559E-03
        32   80            21.209407  1.05106857E-03  1.33400262E-03
        32    8            40.931315  1.16310079E-04  1.96906500E-04
        32    9            69.443627  1.38250449E-05  4.52443909E-05
        32   12      --------------- below threshold  8.38140788E-05
        20   67            97.390753  2.28198091E-05  8.74574451E-04
        20    6            99.783482  1.50054371E-05  6.93034772E-03
        20    7      --------------- below threshold  1.75756559E-03
        20   45      --------------- below threshold  1.75756559E-03
        20   68            21.209407  1.05106857E-03  1.33400262E-03
        20    8            40.931315  1.16310079E-04  1.96906500E-04
        20    9            69.443627  1.38250449E-05  4.52443909E-05
        20   12      --------------- below threshold  8.38140788E-05
        90   79      --------------- below threshold  1.32607052E-02
        90   67      --------------- below threshold  1.32607052E-02
        90   80            99.326149  1.30934811E-05  1.94308264E-03
        90   68            99.326149  1.30934811E-05  1.94308264E-03
        79   33          1067.767973  5.78387806E-04  4.95293431E-05
        79   35           135.291997  5.60718348E-03  2.38307445E-03
        79   91            89.207594  8.95242219E-05  8.29511267E-04
        79   92            95.185404  3.90871658E-05  8.11847297E-04
        79   57            95.185404  3.90871658E-05  8.11847297E-04
        67   21          1067.767973  5.78387806E-04  4.95293431E-05
        67   23           135.291997  5.60718348E-03  2.38307445E-03
        67   91            89.207594  8.95242219E-05  8.29511267E-04
        67   92            95.185404  3.90871658E-05  8.11847297E-04
        67   57            95.185404  3.90871658E-05  8.11847297E-04
         6   21      --------------- below threshold  3.75673894E-02
         6   33      --------------- below threshold  3.75673894E-02
         6   35      --------------- below threshold  1.00243835E-04
         6   23      --------------- below threshold  1.00243835E-04
        21    7      --------------- below threshold  1.61634254E-05
        21   45      --------------- below threshold  1.61634254E-05
        21   68           858.511319  1.25650775E-03  1.31089506E-04
        21    8      --------------- below threshold  4.12607988E-04
        21    9            96.692162  5.46885779E-05  1.65330303E-03
        21   47      --------------- below threshold  3.74001211E-04
        21   11      --------------- below threshold  3.74001211E-04
        21   12      --------------- below threshold  2.23185004E-04
        33    7      --------------- below threshold  1.61634254E-05
        33   45      --------------- below threshold  1.61634254E-05
        33   80           858.511319  1.25650775E-03  1.31089506E-04
        33    8      --------------- below threshold  4.12607988E-04
        33    9            96.692162  5.46885779E-05  1.65330303E-03
        33   47      --------------- below threshold  3.74001211E-04
        33   11      --------------- below threshold  3.74001211E-04
        33   12      --------------- below threshold  2.23185004E-04
        29   53            98.678819  3.90496326E-05  2.95566216E-03
        41   53            98.678819  3.90496326E-05  2.95566216E-03
         7   34      --------------- below threshold  1.55191081E-03
         7   22      --------------- below threshold  1.55191081E-03
         7   35      --------------- below threshold  9.19788262E-04
         7   23      --------------- below threshold  9.19788262E-04
         7   57           344.623941  4.44988774E-05  1.00082054E-05
        45   34      --------------- below threshold  1.55191081E-03
        45   22      --------------- below threshold  1.55191081E-03
        45   35      --------------- below threshold  9.19788262E-04
        45   23      --------------- below threshold  9.19788262E-04
        45   92           344.623941  4.44988774E-05  1.00082054E-05
        97   52      --------------- below threshold  6.56110560E-05
        63   15      --------------- below threshold  6.56110560E-05
        80   91      --------------- below threshold  2.30247539E-03
        80   92            79.747008  6.43064181E-05  3.17515639E-04
        80   57            79.747008  6.43064181E-05  3.17515639E-04
        68   91      --------------- below threshold  2.30247539E-03
        68   92            79.747008  6.43064181E-05  3.17515639E-04
        68   57            79.747008  6.43064181E-05  3.17515639E-04
         8   35      --------------- below threshold  2.56539336E-03
         8   23      --------------- below threshold  2.56539335E-03
        34   46            81.417915  1.86052884E-05  1.00124867E-04
        34   10            81.417915  1.86052884E-05  1.00124867E-04
        34   47            98.921083  1.71431650E-05  1.58892348E-03
        34   11            98.921083  1.71431650E-05  1.58892348E-03
        22   46            81.417915  1.86052884E-05  1.00124867E-04
        22   10            81.417915  1.86052884E-05  1.00124867E-04
        22   47            98.921083  1.71431650E-05  1.58892348E-03
        22   11            98.921083  1.71431650E-05  1.58892348E-03
        98   53      --------------- below threshold  2.52518658E-04
        35    9      --------------- below threshold  9.63098295E-04
        35   47      --------------- below threshold  8.00730364E-04
        35   11      --------------- below threshold  8.00730364E-04
        35   12      --------------- below threshold  3.77499039E-03
        23    9      --------------- below threshold  9.63098295E-04
        23   47      --------------- below threshold  8.00730364E-04
        23   11      --------------- below threshold  8.00730364E-04
        23   12      --------------- below threshold  3.77499039E-03
        92   47      --------------- below threshold  6.45418602E-05
        57   11      --------------- below threshold  6.45418602E-05
     ---------------------------------------------------------------

 Number of problematic transitions =                   523

--

 Electric-dipole - electric-octupole not included
 Electric-dipole - magnetic-quadrupole not included


      ****************************************************************************************************
      *                                                                                                  *
      *                                    Special properties section                                    *
      *                                                                                                  *
      ****************************************************************************************************


++ I/O STATISTICS
 
  I. General I/O information
  - - - - - - - - - - - - - - - - - - - - - - - - - - - - - - - - - - - - - - - - - - -
  Unit  Name          Flsize      Write/Read            MBytes           Write/Read
                      (MBytes)       Calls              In/Out           Time, sec.
  - - - - - - - - - - - - - - - - - - - - - - - - - - - - - - - - - - - - - - - - - - -
   1  RUNFILE           0.99 .     266/  263135 .      2.5/   1903.5 .       0/       0
   2  ANNI              0.00 .       0/       0 .      0.0/      0.0 .       0/       0
   3  ONEINT            1.54 .       0/  126040 .      0.0/ 152831.4 .       0/      19
   4  JOBIPH            1.52 .       0/     651 .      0.0/      1.5 .       0/       0
   5  JOBIPH01          1.22 .       0/     219 .      0.0/      1.3 .       0/       0
   6  JOBIPH02          1.22 .       0/     219 .      0.0/      1.3 .       0/       0
   7  JOBIPH03          1.28 .       0/     315 .      0.0/      1.4 .       0/       0
   8  JOBIPH04          1.32 .       0/     363 .      0.0/      1.4 .       0/       0
   9  JOBIPH05          1.15 .       0/     123 .      0.0/      1.3 .       0/       0
  10  JOBIPH06          1.28 .       0/     315 .      0.0/      1.4 .       0/       0
  11  JOBIPH07          1.32 .       0/     363 .      0.0/      1.4 .       0/       0
  12  JOBIPH08          1.15 .       0/     123 .      0.0/      1.3 .       0/       0
  13  JOBIPH09          1.28 .       0/     315 .      0.0/      1.4 .       0/       0
  14  JOBIPH10          1.32 .       0/     363 .      0.0/      1.4 .       0/       0
  15  JOBIPH11          1.15 .       0/     123 .      0.0/      1.3 .       0/       0
  16  JOBIPH12          1.22 .       0/     219 .      0.0/      1.3 .       0/       0
  17  JOBIPH13          1.32 .       0/     363 .      0.0/      1.4 .       0/       0
  18  JOBIPH14          1.28 .       0/     315 .      0.0/      1.4 .       0/       0
  19  JOBIPH15          1.32 .       0/     363 .      0.0/      1.4 .       0/       0
  20  JOBIPH16          1.15 .       0/     123 .      0.0/      1.3 .       0/       0
  21  JOBIPH17          1.28 .       0/     315 .      0.0/      1.4 .       0/       0
  22  JOBIPH18          1.32 .       0/     363 .      0.0/      1.4 .       0/       0
  23  JOBIPH19          1.15 .       0/     123 .      0.0/      1.3 .       0/       0
  24  JOBIPH20          1.28 .       0/     315 .      0.0/      1.4 .       0/       0
  25  JOBIPH21          1.32 .       0/     363 .      0.0/      1.4 .       0/       0
  26  JOBIPH22          1.15 .       0/     123 .      0.0/      1.3 .       0/       0
  - - - - - - - - - - - - - - - - - - - - - - - - - - - - - - - - - - - - - - - - - - -
   *  TOTAL            31.50 .     266/  395652 .      2.5/ 154766.0 .       0/      19
  - - - - - - - - - - - - - - - - - - - - - - - - - - - - - - - - - - - - - - - - - - -
 
  II. I/O Access Patterns
  - - - - - - - - - - - - - - - - - - - -
  Unit  Name               % of random
                         Write/Read calls
  - - - - - - - - - - - - - - - - - - - -
   1  RUNFILE             28.6/  11.1
   2  ANNI                 0.0/   0.0
   3  ONEINT               0.0/  99.3
   4  JOBIPH               0.0/  51.9
   5  JOBIPH01             0.0/  55.7
   6  JOBIPH02             0.0/  55.7
   7  JOBIPH03             0.0/  54.0
   8  JOBIPH04             0.0/  53.4
   9  JOBIPH05             0.0/  60.2
  10  JOBIPH06             0.0/  54.0
  11  JOBIPH07             0.0/  53.4
  12  JOBIPH08             0.0/  60.2
  13  JOBIPH09             0.0/  54.0
  14  JOBIPH10             0.0/  53.4
  15  JOBIPH11             0.0/  60.2
  16  JOBIPH12             0.0/  55.7
  17  JOBIPH13             0.0/  53.4
  18  JOBIPH14             0.0/  54.0
  19  JOBIPH15             0.0/  53.4
  20  JOBIPH16             0.0/  60.2
  21  JOBIPH17             0.0/  54.0
  22  JOBIPH18             0.0/  53.4
  23  JOBIPH19             0.0/  60.2
  24  JOBIPH20             0.0/  54.0
  25  JOBIPH21             0.0/  53.4
  26  JOBIPH22             0.0/  60.2
  - - - - - - - - - - - - - - - - - - - -
--
--- Stop Module: rassi at Thu Apr 17 11:00:11 2025 /rc=_RC_ALL_IS_WELL_ ---
--- Module rassi spent 40 seconds ---

.##################.
.# Happy landing! #.
.##################.

    Timing: Wall=40.89 User=19.81 System=20.61
