   This run of MOLCAS is using the pymolcas driver

                             OPE
                             OPE          NMOL  CASOP  ENMOLC A   SO
                 OPE        NMOLC        AS  OP EN  MO LC     AS  OP
                OPENM       OL CA        SO  PE NM  OL CA     SOP EN
                OP EN      MO   LC       AS  OP ENMOL  CASO   PENMOL
                OP  EN     MO   LC       AS  OP EN     MO     LC ASO
               OP   E  NMOL  C  AS       OP  EN MO     LC     AS  OP
               OP  E   NMO   LC AS        OPEN  MO     LCASOP EN   M
               O  PEN   MO  LCA  SO
            OPE   NMO   L   CAS    OP
        OPENMOL  CASOP     ENMOL   CASOPE
     OPENMOLCA   SOPENMOLCASOPEN   MOLCASOPE
    OPENMOLCAS   OP           EN   MOL    CAS
    OPENMOLCAS       OP  ENM        O     LCA
    OPENMOLCAS    OPEN  MOLCASO     P  E  NMO
    OPENMOLCAS     OP               E  N  MOL
    OPENMOLCA   SO           PENM   O  L  CAS    OPEN    MO    LCAS
    OPENMOLCA   SOP           ENM   O  L  CAS   OP  EN  MOLC  AS   O
    OPENMOLCA   SOPE           NM      O  LCA   S      OP  EN MO
    OPENMOLC                AS         O  PEN   M      OL  CA  SOPE
    OPENMO        LCASOPE  NMOL        C  ASO   P      ENMOLC     AS
    OPE     NMO      LCA  SO     P     E   NM   OL  CA SO  PE N   MO
          OPENMOLCA            SOPE   NMO        LCAS  O    P  ENMO
     OPENMOLCASOPENMOLCASOPENMOLCASOPENMOLCA
        OPENMOLCASOPENMOLCASOPENMOLCASOPE
            OPENMOLCASOPENMOLCASOPENM
               OPENMOLCASOPENMOLCA        version: 25.02
                   OPENMOLCASO
                       OPE                tag: 92-gf4b470f0a

 OpenMolcas is free software; you can redistribute it and/or modify it
 under the terms of the GNU Lesser General Public License version 2.1.
 OpenMolcas is distributed in the hope that it will be useful, but it
 is provided "as is" and without any express or implied warranties.
 For more details see the full text of the license in the file
 LICENSE or in <http://www.gnu.org/licenses/>.

                 Copyright (C) The OpenMolcas Authors
           For the author list and the recommended citation,
                   consult the file CONTRIBUTORS.md

           *************************************************
           * pymolcas version py2.29                       *
           *   build 2ba4516c4d154a59cba941070ba63e2c      *
           *   (after the EMIL interpreter by V. Veryazov) *
           *************************************************

configuration info
------------------
Host name: iftia91.univ.gda.pl (Linux)
C Compiler ID: GNU
C flags: -std=gnu99
Fortran Compiler ID: GNU
Fortran flags: -cpp -fdefault-integer-8 -fmax-stack-var-size=1048576
Definitions: _MOLCAS_;_I8_;_LINUX_
Parallel: OFF (GA=OFF)


   --------------------------------------------------------------------
  |
  |           Project: O2
  |    Submitted from: /scratch/tecumseh/WorkSpace/O2.0.7000
  |      Scratch area: /scratch/tecumseh/WorkSpace/O2.0.7000
  |   Save outputs to: WORKDIR
  |            Molcas: /home/tecumseh/program/OpenMolcas/build
  |
  | Scratch area is NOT empty
  |
  |    MOLCAS_DRIVER = /home/tecumseh/program/OpenMolcas/build/pymolcas
  |    MOLCAS_NPROCS = 1
  |    MOLCAS_SOURCE = /home/tecumseh/program/OpenMolcas/OpenMolcas
  | MOLCAS_STRUCTURE = 0
  |
   --------------------------------------------------------------------

++ ---------   Input file   ---------

>>> COPY $dir/vectors/$Project.$R.1Ag-12S.JobIph $WorkDir/JOBIPH

>>> COPY $dir/vectors/$Project.$R.3Ag-3S.JobIph $WorkDir/JOBIPH01

>>> COPY $dir/vectors/$Project.$R.5Ag-3S.JobIph $WorkDir/JOBIPH02

>>> COPY $dir/vectors/$Project.$R.1B3u-5S.JobIph $WorkDir/JOBIPH03

>>> COPY $dir/vectors/$Project.$R.3B3u-6S.JobIph $WorkDir/JOBIPH04

>>> COPY $dir/vectors/$Project.$R.5B3u-1S.JobIph $WorkDir/JOBIPH05

>>> COPY $dir/vectors/$Project.$R.1B2u-5S.JobIph $WorkDir/JOBIPH06

>>> COPY $dir/vectors/$Project.$R.3B2u-6S.JobIph $WorkDir/JOBIPH07

>>> COPY $dir/vectors/$Project.$R.5B2u-1S.JobIph $WorkDir/JOBIPH08

>>> COPY $dir/vectors/$Project.$R.1B1g-5S.JobIph $WorkDir/JOBIPH09

>>> COPY $dir/vectors/$Project.$R.3B1g-6S.JobIph $WorkDir/JOBIPH10

>>> COPY $dir/vectors/$Project.$R.5B1g-1S.JobIph $WorkDir/JOBIPH11

>>> COPY $dir/vectors/$Project.$R.1B1u-3S.JobIph $WorkDir/JOBIPH12

>>> COPY $dir/vectors/$Project.$R.3B1u-6S.JobIph $WorkDir/JOBIPH13

>>> COPY $dir/vectors/$Project.$R.1B2g-5S.JobIph $WorkDir/JOBIPH14

>>> COPY $dir/vectors/$Project.$R.3B2g-6S.JobIph $WorkDir/JOBIPH15

>>> COPY $dir/vectors/$Project.$R.5B2g-1S.JobIph $WorkDir/JOBIPH16

>>> COPY $dir/vectors/$Project.$R.1B3g-5S.JobIph $WorkDir/JOBIPH17

>>> COPY $dir/vectors/$Project.$R.3B3g-6S.JobIph $WorkDir/JOBIPH18

>>> COPY $dir/vectors/$Project.$R.5B3g-1S.JobIph $WorkDir/JOBIPH19

>>> COPY $dir/vectors/$Project.$R.1Au-5S.JobIph $WorkDir/JOBIPH20

>>> COPY $dir/vectors/$Project.$R.3Au-6S.JobIph $WorkDir/JOBIPH21

>>> COPY $dir/vectors/$Project.$R.5Au-1S.JobIph $WorkDir/JOBIPH22

&RASSI

OMEGa
NROF=23 12 3 3 5 6 1 5 6 1 5 6 1 3 6 5 6 1 5 6 1 5 6 1
1 2 3 4 5 6 7 8 9 10 11 12
1 2 3
1 2 3
1 2 3 4 5
1 2 3 4 5 6
1
1 2 3 4 5
1 2 3 4 5 6
1
1 2 3 4 5
1 2 3 4 5 6
1
1 2 3
1 2 3 4 5 6
1 2 3 4 5
1 2 3 4 5 6
1
1 2 3 4 5
1 2 3 4 5 6
1
1 2 3 4 5
1 2 3 4 5 6
1
EJOB

-- ----------------------------------

>>> COPY /home/tecumseh/project/molecule/O2/OpenMolcas/vectors/O2.0.7000.1Ag-12S.JobIph /scratch/tecumseh/WorkSpace/O2.0.7000/JOBIPH

>>> COPY /home/tecumseh/project/molecule/O2/OpenMolcas/vectors/O2.0.7000.3Ag-3S.JobIph /scratch/tecumseh/WorkSpace/O2.0.7000/JOBIPH01

>>> COPY /home/tecumseh/project/molecule/O2/OpenMolcas/vectors/O2.0.7000.5Ag-3S.JobIph /scratch/tecumseh/WorkSpace/O2.0.7000/JOBIPH02

>>> COPY /home/tecumseh/project/molecule/O2/OpenMolcas/vectors/O2.0.7000.1B3u-5S.JobIph /scratch/tecumseh/WorkSpace/O2.0.7000/JOBIPH03

>>> COPY /home/tecumseh/project/molecule/O2/OpenMolcas/vectors/O2.0.7000.3B3u-6S.JobIph /scratch/tecumseh/WorkSpace/O2.0.7000/JOBIPH04

>>> COPY /home/tecumseh/project/molecule/O2/OpenMolcas/vectors/O2.0.7000.5B3u-1S.JobIph /scratch/tecumseh/WorkSpace/O2.0.7000/JOBIPH05

>>> COPY /home/tecumseh/project/molecule/O2/OpenMolcas/vectors/O2.0.7000.1B2u-5S.JobIph /scratch/tecumseh/WorkSpace/O2.0.7000/JOBIPH06

>>> COPY /home/tecumseh/project/molecule/O2/OpenMolcas/vectors/O2.0.7000.3B2u-6S.JobIph /scratch/tecumseh/WorkSpace/O2.0.7000/JOBIPH07

>>> COPY /home/tecumseh/project/molecule/O2/OpenMolcas/vectors/O2.0.7000.5B2u-1S.JobIph /scratch/tecumseh/WorkSpace/O2.0.7000/JOBIPH08

>>> COPY /home/tecumseh/project/molecule/O2/OpenMolcas/vectors/O2.0.7000.1B1g-5S.JobIph /scratch/tecumseh/WorkSpace/O2.0.7000/JOBIPH09

>>> COPY /home/tecumseh/project/molecule/O2/OpenMolcas/vectors/O2.0.7000.3B1g-6S.JobIph /scratch/tecumseh/WorkSpace/O2.0.7000/JOBIPH10

>>> COPY /home/tecumseh/project/molecule/O2/OpenMolcas/vectors/O2.0.7000.5B1g-1S.JobIph /scratch/tecumseh/WorkSpace/O2.0.7000/JOBIPH11

>>> COPY /home/tecumseh/project/molecule/O2/OpenMolcas/vectors/O2.0.7000.1B1u-3S.JobIph /scratch/tecumseh/WorkSpace/O2.0.7000/JOBIPH12

>>> COPY /home/tecumseh/project/molecule/O2/OpenMolcas/vectors/O2.0.7000.3B1u-6S.JobIph /scratch/tecumseh/WorkSpace/O2.0.7000/JOBIPH13

>>> COPY /home/tecumseh/project/molecule/O2/OpenMolcas/vectors/O2.0.7000.1B2g-5S.JobIph /scratch/tecumseh/WorkSpace/O2.0.7000/JOBIPH14

>>> COPY /home/tecumseh/project/molecule/O2/OpenMolcas/vectors/O2.0.7000.3B2g-6S.JobIph /scratch/tecumseh/WorkSpace/O2.0.7000/JOBIPH15

>>> COPY /home/tecumseh/project/molecule/O2/OpenMolcas/vectors/O2.0.7000.5B2g-1S.JobIph /scratch/tecumseh/WorkSpace/O2.0.7000/JOBIPH16

>>> COPY /home/tecumseh/project/molecule/O2/OpenMolcas/vectors/O2.0.7000.1B3g-5S.JobIph /scratch/tecumseh/WorkSpace/O2.0.7000/JOBIPH17

>>> COPY /home/tecumseh/project/molecule/O2/OpenMolcas/vectors/O2.0.7000.3B3g-6S.JobIph /scratch/tecumseh/WorkSpace/O2.0.7000/JOBIPH18

>>> COPY /home/tecumseh/project/molecule/O2/OpenMolcas/vectors/O2.0.7000.5B3g-1S.JobIph /scratch/tecumseh/WorkSpace/O2.0.7000/JOBIPH19

>>> COPY /home/tecumseh/project/molecule/O2/OpenMolcas/vectors/O2.0.7000.1Au-5S.JobIph /scratch/tecumseh/WorkSpace/O2.0.7000/JOBIPH20

>>> COPY /home/tecumseh/project/molecule/O2/OpenMolcas/vectors/O2.0.7000.3Au-6S.JobIph /scratch/tecumseh/WorkSpace/O2.0.7000/JOBIPH21

>>> COPY /home/tecumseh/project/molecule/O2/OpenMolcas/vectors/O2.0.7000.5Au-1S.JobIph /scratch/tecumseh/WorkSpace/O2.0.7000/JOBIPH22

--- Start Module: rassi at Thu Apr 17 10:56:58 2025 ---

()()()()()()()()()()()()()()()()()()()()()()()()()()()()()()()()()()()()()()()()()()()()()()()()()()

                                               &RASSI

                                   only a single process is used
                       available to each process: 2.0 GB of memory, 1 thread?
                                            pid: 298345
()()()()()()()()()()()()()()()()()()()()()()()()()()()()()()()()()()()()()()()()()()()()()()()()()()


      ********************************************************************************
      *                                                                              *
      *                             General data section                             *
      *                                                                              *
      ********************************************************************************

   Specific data for JOBIPH file JOBIPH
   -------------------------------------

   Header from SEWARD:
                            O2, D2h symmetry, aug-cc-pVTZ                      
        Integrals generated by Gateway/Seward, Wed Apr 16 15:47:24 2025        

   CASSCF title (first line only):
       O2, 1Ag 12S                                                             

  STATE IRREP:                1
  SPIN MULTIPLICITY:          1
  ACTIVE ELECTRONS:          12
  MAX RAS1 HOLES:             0
  MAX RAS3 ELECTRONS:         0
  NR OF CONFIG:              60

   Specific data for JOBIPH file JOBIPH01
   -------------------------------------

   Header from SEWARD:
                            O2, D2h symmetry, aug-cc-pVTZ                      
        Integrals generated by Gateway/Seward, Wed Apr 16 15:47:24 2025        

   CASSCF title (first line only):
       O2, 3Ag  3S                                                             

  STATE IRREP:                1
  SPIN MULTIPLICITY:          3
  ACTIVE ELECTRONS:          12
  MAX RAS1 HOLES:             0
  MAX RAS3 ELECTRONS:         0
  NR OF CONFIG:              42

   Specific data for JOBIPH file JOBIPH02
   -------------------------------------

   Header from SEWARD:
                            O2, D2h symmetry, aug-cc-pVTZ                      
        Integrals generated by Gateway/Seward, Wed Apr 16 15:47:24 2025        

   CASSCF title (first line only):
       O2, 5Ag  3S                                                             

  STATE IRREP:                1
  SPIN MULTIPLICITY:          5
  ACTIVE ELECTRONS:          12
  MAX RAS1 HOLES:             0
  MAX RAS3 ELECTRONS:         0
  NR OF CONFIG:              10

   Specific data for JOBIPH file JOBIPH03
   -------------------------------------

   Header from SEWARD:
                            O2, D2h symmetry, aug-cc-pVTZ                      
        Integrals generated by Gateway/Seward, Thu Apr 17 10:56:49 2025        

   CASSCF title (first line only):
       O2, 1B3u 5S                                                             

  STATE IRREP:                2
  SPIN MULTIPLICITY:          1
  ACTIVE ELECTRONS:          12
  MAX RAS1 HOLES:             0
  MAX RAS3 ELECTRONS:         0
  NR OF CONFIG:              40

   Specific data for JOBIPH file JOBIPH04
   -------------------------------------

   Header from SEWARD:
                            O2, D2h symmetry, aug-cc-pVTZ                      
        Integrals generated by Gateway/Seward, Wed Apr 16 15:47:24 2025        

   CASSCF title (first line only):
       O2, 3B3u 6S                                                             

  STATE IRREP:                2
  SPIN MULTIPLICITY:          3
  ACTIVE ELECTRONS:          12
  MAX RAS1 HOLES:             0
  MAX RAS3 ELECTRONS:         0
  NR OF CONFIG:              48

   Specific data for JOBIPH file JOBIPH05
   -------------------------------------

   Header from SEWARD:
                            O2, D2h symmetry, aug-cc-pVTZ                      
        Integrals generated by Gateway/Seward, Wed Apr 16 15:47:24 2025        

   CASSCF title (first line only):
       O2, 5B3u 1S                                                             

  STATE IRREP:                2
  SPIN MULTIPLICITY:          5
  ACTIVE ELECTRONS:          12
  MAX RAS1 HOLES:             0
  MAX RAS3 ELECTRONS:         0
  NR OF CONFIG:               8

   Specific data for JOBIPH file JOBIPH06
   -------------------------------------

   Header from SEWARD:
                            O2, D2h symmetry, aug-cc-pVTZ                      
        Integrals generated by Gateway/Seward, Thu Apr 17 10:56:49 2025        

   CASSCF title (first line only):
       O2, 1B2u 5S                                                             

  STATE IRREP:                3
  SPIN MULTIPLICITY:          1
  ACTIVE ELECTRONS:          12
  MAX RAS1 HOLES:             0
  MAX RAS3 ELECTRONS:         0
  NR OF CONFIG:              40

   Specific data for JOBIPH file JOBIPH07
   -------------------------------------

   Header from SEWARD:
                            O2, D2h symmetry, aug-cc-pVTZ                      
        Integrals generated by Gateway/Seward, Wed Apr 16 15:47:24 2025        

   CASSCF title (first line only):
       O2, 3B2u 6S                                                             

  STATE IRREP:                3
  SPIN MULTIPLICITY:          3
  ACTIVE ELECTRONS:          12
  MAX RAS1 HOLES:             0
  MAX RAS3 ELECTRONS:         0
  NR OF CONFIG:              48

   Specific data for JOBIPH file JOBIPH08
   -------------------------------------

   Header from SEWARD:
                            O2, D2h symmetry, aug-cc-pVTZ                      
        Integrals generated by Gateway/Seward, Wed Apr 16 15:47:24 2025        

   CASSCF title (first line only):
       O2, 5B2u 1S                                                             

  STATE IRREP:                3
  SPIN MULTIPLICITY:          5
  ACTIVE ELECTRONS:          12
  MAX RAS1 HOLES:             0
  MAX RAS3 ELECTRONS:         0
  NR OF CONFIG:               8

   Specific data for JOBIPH file JOBIPH09
   -------------------------------------

   Header from SEWARD:
                            O2, D2h symmetry, aug-cc-pVTZ                      
        Integrals generated by Gateway/Seward, Wed Apr 16 15:47:24 2025        

   CASSCF title (first line only):
       O2, 1B1g 5S                                                             

  STATE IRREP:                4
  SPIN MULTIPLICITY:          1
  ACTIVE ELECTRONS:          12
  MAX RAS1 HOLES:             0
  MAX RAS3 ELECTRONS:         0
  NR OF CONFIG:              36

   Specific data for JOBIPH file JOBIPH10
   -------------------------------------

   Header from SEWARD:
                            O2, D2h symmetry, aug-cc-pVTZ                      
        Integrals generated by Gateway/Seward, Wed Apr 16 15:47:24 2025        

   CASSCF title (first line only):
       O2, 3B1g 6S                                                             

  STATE IRREP:                4
  SPIN MULTIPLICITY:          3
  ACTIVE ELECTRONS:          12
  MAX RAS1 HOLES:             0
  MAX RAS3 ELECTRONS:         0
  NR OF CONFIG:              48

   Specific data for JOBIPH file JOBIPH11
   -------------------------------------

   Header from SEWARD:
                            O2, D2h symmetry, aug-cc-pVTZ                      
        Integrals generated by Gateway/Seward, Wed Apr 16 15:47:24 2025        

   CASSCF title (first line only):
       O2, 5B1g 1S                                                             

  STATE IRREP:                4
  SPIN MULTIPLICITY:          5
  ACTIVE ELECTRONS:          12
  MAX RAS1 HOLES:             0
  MAX RAS3 ELECTRONS:         0
  NR OF CONFIG:              12

   Specific data for JOBIPH file JOBIPH12
   -------------------------------------

   Header from SEWARD:
                            O2, D2h symmetry, aug-cc-pVTZ                      
        Integrals generated by Gateway/Seward, Thu Apr 17 10:56:49 2025        

   CASSCF title (first line only):
       O2, 1B1u 3S                                                             

  STATE IRREP:                5
  SPIN MULTIPLICITY:          1
  ACTIVE ELECTRONS:          12
  MAX RAS1 HOLES:             0
  MAX RAS3 ELECTRONS:         0
  NR OF CONFIG:              44

   Specific data for JOBIPH file JOBIPH13
   -------------------------------------

   Header from SEWARD:
                            O2, D2h symmetry, aug-cc-pVTZ                      
        Integrals generated by Gateway/Seward, Wed Apr 16 15:47:24 2025        

   CASSCF title (first line only):
       O2, 3B1u 6S                                                             

  STATE IRREP:                5
  SPIN MULTIPLICITY:          3
  ACTIVE ELECTRONS:          12
  MAX RAS1 HOLES:             0
  MAX RAS3 ELECTRONS:         0
  NR OF CONFIG:              48

   Specific data for JOBIPH file JOBIPH14
   -------------------------------------

   Header from SEWARD:
                            O2, D2h symmetry, aug-cc-pVTZ                      
        Integrals generated by Gateway/Seward, Wed Apr 16 15:47:24 2025        

   CASSCF title (first line only):
       O2, 1B2g 5S                                                             

  STATE IRREP:                6
  SPIN MULTIPLICITY:          1
  ACTIVE ELECTRONS:          12
  MAX RAS1 HOLES:             0
  MAX RAS3 ELECTRONS:         0
  NR OF CONFIG:              40

   Specific data for JOBIPH file JOBIPH15
   -------------------------------------

   Header from SEWARD:
                            O2, D2h symmetry, aug-cc-pVTZ                      
        Integrals generated by Gateway/Seward, Wed Apr 16 15:47:24 2025        

   CASSCF title (first line only):
       O2, 3B2g 6S                                                             

  STATE IRREP:                6
  SPIN MULTIPLICITY:          3
  ACTIVE ELECTRONS:          12
  MAX RAS1 HOLES:             0
  MAX RAS3 ELECTRONS:         0
  NR OF CONFIG:              48

   Specific data for JOBIPH file JOBIPH16
   -------------------------------------

   Header from SEWARD:
                            O2, D2h symmetry, aug-cc-pVTZ                      
        Integrals generated by Gateway/Seward, Wed Apr 16 18:05:32 2025        

   CASSCF title (first line only):
       O2, 5B2g 1S                                                             

  STATE IRREP:                6
  SPIN MULTIPLICITY:          5
  ACTIVE ELECTRONS:          12
  MAX RAS1 HOLES:             0
  MAX RAS3 ELECTRONS:         0
  NR OF CONFIG:               8

   Specific data for JOBIPH file JOBIPH17
   -------------------------------------

   Header from SEWARD:
                            O2, D2h symmetry, aug-cc-pVTZ                      
        Integrals generated by Gateway/Seward, Wed Apr 16 15:47:24 2025        

   CASSCF title (first line only):
       O2, 1B3g 5S                                                             

  STATE IRREP:                7
  SPIN MULTIPLICITY:          1
  ACTIVE ELECTRONS:          12
  MAX RAS1 HOLES:             0
  MAX RAS3 ELECTRONS:         0
  NR OF CONFIG:              40

   Specific data for JOBIPH file JOBIPH18
   -------------------------------------

   Header from SEWARD:
                            O2, D2h symmetry, aug-cc-pVTZ                      
        Integrals generated by Gateway/Seward, Wed Apr 16 15:47:24 2025        

   CASSCF title (first line only):
       O2, 3B3g 6S                                                             

  STATE IRREP:                7
  SPIN MULTIPLICITY:          3
  ACTIVE ELECTRONS:          12
  MAX RAS1 HOLES:             0
  MAX RAS3 ELECTRONS:         0
  NR OF CONFIG:              48

   Specific data for JOBIPH file JOBIPH19
   -------------------------------------

   Header from SEWARD:
                            O2, D2h symmetry, aug-cc-pVTZ                      
        Integrals generated by Gateway/Seward, Wed Apr 16 15:47:24 2025        

   CASSCF title (first line only):
       O2, 5B3g 1S                                                             

  STATE IRREP:                7
  SPIN MULTIPLICITY:          5
  ACTIVE ELECTRONS:          12
  MAX RAS1 HOLES:             0
  MAX RAS3 ELECTRONS:         0
  NR OF CONFIG:               8

   Specific data for JOBIPH file JOBIPH20
   -------------------------------------

   Header from SEWARD:
                            O2, D2h symmetry, aug-cc-pVTZ                      
        Integrals generated by Gateway/Seward, Thu Apr 17 10:56:49 2025        

   CASSCF title (first line only):
       O2, 1Au 5S                                                              

  STATE IRREP:                8
  SPIN MULTIPLICITY:          1
  ACTIVE ELECTRONS:          12
  MAX RAS1 HOLES:             0
  MAX RAS3 ELECTRONS:         0
  NR OF CONFIG:              36

   Specific data for JOBIPH file JOBIPH21
   -------------------------------------

   Header from SEWARD:
                            O2, D2h symmetry, aug-cc-pVTZ                      
        Integrals generated by Gateway/Seward, Wed Apr 16 15:47:24 2025        

   CASSCF title (first line only):
       O2, 3Au 6S                                                              

  STATE IRREP:                8
  SPIN MULTIPLICITY:          3
  ACTIVE ELECTRONS:          12
  MAX RAS1 HOLES:             0
  MAX RAS3 ELECTRONS:         0
  NR OF CONFIG:              48

   Specific data for JOBIPH file JOBIPH22
   -------------------------------------

   Header from SEWARD:
                            O2, D2h symmetry, aug-cc-pVTZ                      
        Integrals generated by Gateway/Seward, Wed Apr 16 15:47:24 2025        

   CASSCF title (first line only):
       O2, 5Au 1S                                                              

  STATE IRREP:                8
  SPIN MULTIPLICITY:          5
  ACTIVE ELECTRONS:          12
  MAX RAS1 HOLES:             0
  MAX RAS3 ELECTRONS:         0
  NR OF CONFIG:              12
 ###############################################################################
 ###############################################################################
 ###                                                                         ###
 ###                                                                         ###
 ###    WARNING: EJOB used when HEFF is available, possible                  ###
 ###    extra interaction between states is ignored!                         ###
 ###                                                                         ###
 ###                                                                         ###
 ###############################################################################
 ###############################################################################

   The following data are common to all the states:
   ------------------------------------------------
   (note: frozen counts as inactive, deleted as secondary)

      Nr of irreps: 8

                 Total     No./Irrep 
      Irrep                  1   2   3   4   5   6   7   8
                            ag b3u b2u b1g b1u b2g b3g  au

      INACTIVE       2       1   0   0   0   1   0   0   0
      ACTIVE         8       2   1   1   0   2   1   1   0
      SECONDARY     82      16  10  10   5  16  10  10   5
      BASIS         92      19  11  11   5  19  11  11   5

      RAS1           0       0   0   0   0   0   0   0   0
      RAS2           8       2   1   1   0   2   1   1   0
      RAS3           0       0   0   0   0   0   0   0   0

        MATRIX ELEMENTS WILL BE COMPUTED FOR THE FOLLOWING ONE-ELECTRON OPERATORS, UNLESS ZERO BY SYMMETRY.
   (Herm=Hermitian, Anti=Antihermitian, Sing=Singlet operator, Trip=Triplet operator)
     MLTPL  0   1 (HERMSING)     MLTPL  1   1 (HERMSING)     MLTPL  1   2 (HERMSING)
     MLTPL  1   3 (HERMSING)     MLTPL  2   1 (HERMSING)     MLTPL  2   2 (HERMSING)
     MLTPL  2   3 (HERMSING)     MLTPL  2   4 (HERMSING)     MLTPL  2   5 (HERMSING)
     MLTPL  2   6 (HERMSING)     VELOCITY   1 (ANTISING)     VELOCITY   2 (ANTISING)
     VELOCITY   3 (ANTISING)     ANGMOM     1 (ANTISING)     ANGMOM     2 (ANTISING)
     ANGMOM     3 (ANTISING)     MLTPV  2   1 (ANTISING)     MLTPV  2   2 (ANTISING)
     MLTPV  2   3 (ANTISING)     MLTPV  2   4 (ANTISING)     MLTPV  2   5 (ANTISING)
     MLTPV  2   6 (ANTISING)

       EIGENSTATES OF A SPIN-FREE HAMILTONIAN WILL BE COMPUTED BASED ON:

  a Hamiltonian matrix assumed to be diagonal with energies read from the wavefunction file(s).

  Nr of states:                   99

   State:        1   2   3   4   5   6   7   8   9  10  11  12  13  14  15  16  17  18  19  20
  JobIph:        1   1   1   1   1   1   1   1   1   1   1   1   2   2   2   3   3   3   4   4
 Root nr:        1   2   3   4   5   6   7   8   9  10  11  12   1   2   3   1   2   3   1   2

   State:       21  22  23  24  25  26  27  28  29  30  31  32  33  34  35  36  37  38  39  40
  JobIph:        4   4   4   5   5   5   5   5   5   6   7   7   7   7   7   8   8   8   8   8
 Root nr:        3   4   5   1   2   3   4   5   6   1   1   2   3   4   5   1   2   3   4   5

   State:       41  42  43  44  45  46  47  48  49  50  51  52  53  54  55  56  57  58  59  60
  JobIph:        8   9  10  10  10  10  10  11  11  11  11  11  11  12  13  13  13  14  14  14
 Root nr:        6   1   1   2   3   4   5   1   2   3   4   5   6   1   1   2   3   1   2   3

   State:       61  62  63  64  65  66  67  68  69  70  71  72  73  74  75  76  77  78  79  80
  JobIph:       14  14  14  15  15  15  15  15  16  16  16  16  16  16  17  18  18  18  18  18
 Root nr:        4   5   6   1   2   3   4   5   1   2   3   4   5   6   1   1   2   3   4   5

   State:       81  82  83  84  85  86  87  88  89  90  91  92  93  94  95  96  97  98  99
  JobIph:       19  19  19  19  19  19  20  21  21  21  21  21  22  22  22  22  22  22  23
 Root nr:        1   2   3   4   5   6   1   1   2   3   4   5   1   2   3   4   5   6   1

  HAMILTONIAN MATRIX FOR THE ORIGINAL STATES:

  Diagonal, with energies
   -149.70296840   -149.68806910   -149.28839836   -149.27627477   -149.21678129
   -149.10743028   -149.10010120   -149.09472084   -148.87119998   -148.81147559
   -148.78615434   -148.77158364   -149.15544266   -149.15224432   -148.90432382
   -149.25514145   -149.25213297   -148.97719013   -149.41318299   -149.27401927
   -149.10143809   -149.04132024   -149.04021755   -149.46560561   -149.32914078
   -149.16716798   -149.13288721   -149.12715896   -149.12079901   -149.22018159
   -149.41318299   -149.27401927   -149.10143809   -149.04132024   -149.04021755
   -149.46560561   -149.32914078   -149.16716798   -149.13288721   -149.12715896
   -149.12079901   -149.22018159   -149.70296840   -149.28839836   -149.10010120
   -148.88190008   -148.84734463   -149.73176810   -149.34855428   -149.20716893
   -149.15544266   -148.92100053   -148.90432382   -149.25514145   -149.39555869
   -149.34739894   -148.90896892   -149.60005717   -149.59690272   -149.28377889
   -149.27177574   -149.04340936   -148.97261996   -149.44514232   -149.30453614
   -149.22882885   -149.19652164   -149.09119097   -149.49970566   -149.34094603
   -149.29943467   -149.29619322   -149.26213178   -149.14130848   -149.40764594
   -149.44514232   -149.30453614   -149.22882885   -149.19652164   -149.09119097
   -149.49970566   -149.34094603   -149.29943467   -149.29619322   -149.26213178
   -149.14130848   -149.40764594   -149.60795260   -149.39555869   -149.19822830
   -148.90896892   -148.90516892   -149.60005717   -149.48203629   -149.28377889
   -149.25234397   -148.97261996   -148.94806668   -149.35986909

      OVERLAP MATRIX FOR THE ORIGINAL STATES:

  Diagonal, with elements
      1.00000000      1.00000000      1.00000000      1.00000000      1.00000000
      1.00000000      1.00000000      1.00000000      1.00000000      1.00000000
      1.00000000      1.00000000      1.00000000      1.00000000      1.00000000
      1.00000000      1.00000000      1.00000000      1.00000000      1.00000000
      1.00000000      1.00000000      1.00000000      1.00000000      1.00000000
      1.00000000      1.00000000      1.00000000      1.00000000      1.00000000
      1.00000000      1.00000000      1.00000000      1.00000000      1.00000000
      1.00000000      1.00000000      1.00000000      1.00000000      1.00000000
      1.00000000      1.00000000      1.00000000      1.00000000      1.00000000
      1.00000000      1.00000000      1.00000000      1.00000000      1.00000000
      1.00000000      1.00000000      1.00000000      1.00000000      1.00000000
      1.00000000      1.00000000      1.00000000      1.00000000      1.00000000
      1.00000000      1.00000000      1.00000000      1.00000000      1.00000000
      1.00000000      1.00000000      1.00000000      1.00000000      1.00000000
      1.00000000      1.00000000      1.00000000      1.00000000      1.00000000
      1.00000000      1.00000000      1.00000000      1.00000000      1.00000000
      1.00000000      1.00000000      1.00000000      1.00000000      1.00000000
      1.00000000      1.00000000      1.00000000      1.00000000      1.00000000
      1.00000000      1.00000000      1.00000000      1.00000000      1.00000000
      1.00000000      1.00000000      1.00000000      1.00000000

::    RASSI State    1     Total energy:    -149.70296839585950
::    RASSI State    2     Total energy:    -149.68806909611183
::    RASSI State    3     Total energy:    -149.28839836428824
::    RASSI State    4     Total energy:    -149.27627476980021
::    RASSI State    5     Total energy:    -149.21678129465280
::    RASSI State    6     Total energy:    -149.10743027554895
::    RASSI State    7     Total energy:    -149.10010120021053
::    RASSI State    8     Total energy:    -149.09472084068921
::    RASSI State    9     Total energy:    -148.87119998331127
::    RASSI State   10     Total energy:    -148.81147558834704
::    RASSI State   11     Total energy:    -148.78615433828119
::    RASSI State   12     Total energy:    -148.77158364472388
::    RASSI State   13     Total energy:    -149.15544265901488
::    RASSI State   14     Total energy:    -149.15224431612125
::    RASSI State   15     Total energy:    -148.90432381550423
::    RASSI State   16     Total energy:    -149.25514145129065
::    RASSI State   17     Total energy:    -149.25213296896797
::    RASSI State   18     Total energy:    -148.97719013042806
::    RASSI State   19     Total energy:    -149.41318298544212
::    RASSI State   20     Total energy:    -149.27401927187785
::    RASSI State   21     Total energy:    -149.10143809417062
::    RASSI State   22     Total energy:    -149.04132024096694
::    RASSI State   23     Total energy:    -149.04021755384397
::    RASSI State   24     Total energy:    -149.46560560597865
::    RASSI State   25     Total energy:    -149.32914078093467
::    RASSI State   26     Total energy:    -149.16716798085343
::    RASSI State   27     Total energy:    -149.13288720524645
::    RASSI State   28     Total energy:    -149.12715895598518
::    RASSI State   29     Total energy:    -149.12079901217700
::    RASSI State   30     Total energy:    -149.22018158666233
::    RASSI State   31     Total energy:    -149.41318298544229
::    RASSI State   32     Total energy:    -149.27401927187779
::    RASSI State   33     Total energy:    -149.10143809417067
::    RASSI State   34     Total energy:    -149.04132024096700
::    RASSI State   35     Total energy:    -149.04021755384392
::    RASSI State   36     Total energy:    -149.46560560597860
::    RASSI State   37     Total energy:    -149.32914078093464
::    RASSI State   38     Total energy:    -149.16716798085335
::    RASSI State   39     Total energy:    -149.13288720524636
::    RASSI State   40     Total energy:    -149.12715895598490
::    RASSI State   41     Total energy:    -149.12079901217686
::    RASSI State   42     Total energy:    -149.22018158666231
::    RASSI State   43     Total energy:    -149.70296839585956
::    RASSI State   44     Total energy:    -149.28839836428841
::    RASSI State   45     Total energy:    -149.10010120021073
::    RASSI State   46     Total energy:    -148.88190008209918
::    RASSI State   47     Total energy:    -148.84734463186768
::    RASSI State   48     Total energy:    -149.73176809804264
::    RASSI State   49     Total energy:    -149.34855427850400
::    RASSI State   50     Total energy:    -149.20716892668966
::    RASSI State   51     Total energy:    -149.15544265901502
::    RASSI State   52     Total energy:    -148.92100053257835
::    RASSI State   53     Total energy:    -148.90432381550428
::    RASSI State   54     Total energy:    -149.25514145129060
::    RASSI State   55     Total energy:    -149.39555868828623
::    RASSI State   56     Total energy:    -149.34739894175897
::    RASSI State   57     Total energy:    -148.90896892339128
::    RASSI State   58     Total energy:    -149.60005717306447
::    RASSI State   59     Total energy:    -149.59690271671926
::    RASSI State   60     Total energy:    -149.28377888990948
::    RASSI State   61     Total energy:    -149.27177573907565
::    RASSI State   62     Total energy:    -149.04340936118570
::    RASSI State   63     Total energy:    -148.97261995675186
::    RASSI State   64     Total energy:    -149.44514232466690
::    RASSI State   65     Total energy:    -149.30453613848229
::    RASSI State   66     Total energy:    -149.22882884500004
::    RASSI State   67     Total energy:    -149.19652164218297
::    RASSI State   68     Total energy:    -149.09119096998936
::    RASSI State   69     Total energy:    -149.49970565818910
::    RASSI State   70     Total energy:    -149.34094602884224
::    RASSI State   71     Total energy:    -149.29943466902594
::    RASSI State   72     Total energy:    -149.29619322151078
::    RASSI State   73     Total energy:    -149.26213178095347
::    RASSI State   74     Total energy:    -149.14130847759273
::    RASSI State   75     Total energy:    -149.40764594156491
::    RASSI State   76     Total energy:    -149.44514232466679
::    RASSI State   77     Total energy:    -149.30453613848226
::    RASSI State   78     Total energy:    -149.22882884500004
::    RASSI State   79     Total energy:    -149.19652164218297
::    RASSI State   80     Total energy:    -149.09119096998944
::    RASSI State   81     Total energy:    -149.49970565818913
::    RASSI State   82     Total energy:    -149.34094602884238
::    RASSI State   83     Total energy:    -149.29943466902591
::    RASSI State   84     Total energy:    -149.29619322151075
::    RASSI State   85     Total energy:    -149.26213178095347
::    RASSI State   86     Total energy:    -149.14130847759276
::    RASSI State   87     Total energy:    -149.40764594156482
::    RASSI State   88     Total energy:    -149.60795259977590
::    RASSI State   89     Total energy:    -149.39555868828648
::    RASSI State   90     Total energy:    -149.19822829896844
::    RASSI State   91     Total energy:    -148.90896892339114
::    RASSI State   92     Total energy:    -148.90516892126584
::    RASSI State   93     Total energy:    -149.60005717306447
::    RASSI State   94     Total energy:    -149.48203628592600
::    RASSI State   95     Total energy:    -149.28377888990946
::    RASSI State   96     Total energy:    -149.25234396934039
::    RASSI State   97     Total energy:    -148.97261995675174
::    RASSI State   98     Total energy:    -148.94806668428865
::    RASSI State   99     Total energy:    -149.35986908731920



      ****************************************************************************************************
      *                                                                                                  *
      *                                         Spin-free section                                        *
      *                                                                                                  *
      *                 Note: index according to input order, order according to energy.                 *
      *                                                                                                  *
      ****************************************************************************************************



  SPIN-FREE ENERGIES:
  (Shifted by EMIN (a.u.) =       -149.7317680980)

 SF State       Relative EMIN(au)   Rel lowest level(eV)    D:o, cm**(-1)      L_eff   Abs_M

    48             0.0000000000        0.0000000000              0.0000         1.7     0.0
    43             0.0287997022        0.7836798199           6320.8040         2.4     2.0
     1             0.0287997022        0.7836798199           6320.8040         2.4     2.0
     2             0.0436990019        1.1891104201           9590.8223         1.6     0.0
    88             0.1238154983        3.3691913466          27174.3608         1.2     0.0
    58             0.1317109250        3.5840368524          28907.2067         2.1     2.0
    93             0.1317109250        3.5840368524          28907.2067         2.1     2.0
    59             0.1348653813        3.6698739824          29599.5298         1.1     0.0
    81             0.2320624399        6.3147406840          50931.8184         1.5     1.0
    69             0.2320624399        6.3147406840          50931.8184         1.5     1.0
    94             0.2497318121        6.7955487974          54809.7974         1.5     0.0
    24             0.2661624921        7.2426503757          58415.9148         1.9     1.0
    36             0.2661624921        7.2426503757          58415.9148         1.9     1.0
    64             0.2866257734        7.7994846274          62907.0860         2.7     1.0
    76             0.2866257734        7.7994846274          62907.0860         2.7     1.0
    31             0.3185851126        8.6691425512          69921.3501         1.5     1.0
    19             0.3185851126        8.6691425512          69921.3501         1.5     1.0
    75             0.3241221565        8.8198131908          71136.5908         1.5     1.0
    87             0.3241221565        8.8198131908          71136.5908         1.5     1.0
    89             0.3362094098        9.1487241084          73789.4363         2.2     2.0
    55             0.3362094098        9.1487241084          73789.4363         2.2     2.0
    99             0.3718990107       10.1198876253          81622.3983         0.3     0.0
    49             0.3832138195       10.4277792583          84105.7118         0.8     0.0
    56             0.3843691563       10.4592175727          84359.2789         0.7     0.0
    82             0.3908220692       10.6348102785          85775.5296         1.5     1.0
    70             0.3908220692       10.6348102785          85775.5296         1.5     1.0
    25             0.4026273171       10.9560474390          88366.4820         1.7     1.0
    37             0.4026273171       10.9560474390          88366.4820         1.7     1.0
    65             0.4272319596       11.6255738682          93766.5768         1.8     1.0
    77             0.4272319596       11.6255738682          93766.5768         1.8     1.0
    71             0.4323334290       11.7643919240          94886.2200         1.4     1.0
    83             0.4323334290       11.7643919240          94886.2200         1.4     1.0
    72             0.4355748765       11.8525962044          95597.6355         2.9     3.0
    84             0.4355748765       11.8525962044          95597.6355         2.9     3.0
    44             0.4433697338       12.0647050750          97308.4089         2.0     2.0
     3             0.4433697338       12.0647050750          97308.4089         2.0     2.0
    60             0.4479892081       12.1904073765          98322.2663         2.1     2.0
    95             0.4479892081       12.1904073765          98322.2663         2.1     2.0
     4             0.4554933282       12.3946048873          99969.2303         1.8     0.0
    20             0.4577488262       12.4559801124         100464.2549         1.5     1.0
    32             0.4577488262       12.4559801124         100464.2549         1.5     1.0
    61             0.4599923590       12.5170297501         100956.6534         1.1     0.0
    73             0.4696363171       12.7794552195         103073.2576         1.3     1.0
    85             0.4696363171       12.7794552195         103073.2576         1.3     1.0
    16             0.4766266468       12.9696717799         104607.4576         1.9     2.0
    54             0.4766266468       12.9696717799         104607.4576         1.9     2.0
    96             0.4794241287       13.0457951418         105221.4339         1.4     0.0
    17             0.4796351291       13.0515367544         105267.7431         0.8     0.0
    66             0.5029392530       13.6856742728         110382.4072         3.1     3.0
    78             0.5029392530       13.6856742728         110382.4072         3.1     3.0
    30             0.5115865114       13.9209781594         112280.2610         0.7     1.0
    42             0.5115865114       13.9209781594         112280.2610         0.7     1.0
     5             0.5149868034       14.0135048186         113026.5388         1.3     0.0
    50             0.5245991714       14.2750706760         115136.2097         1.1     0.0
    90             0.5335397991       14.5183575502         117098.4507         1.9     0.0
    67             0.5352464559       14.5647980472         117473.0186         1.8     1.0
    79             0.5352464559       14.5647980472         117473.0186         1.8     1.0
    26             0.5646001172       15.3635518634         123915.4026         1.3     1.0
    38             0.5646001172       15.3635518634         123915.4026         1.3     1.0
    51             0.5763254390       15.6826141248         126488.8133         2.3     2.0
    13             0.5763254390       15.6826141248         126488.8133         2.3     2.0
    14             0.5795237819       15.7696454686         127190.7684         1.5     0.0
    86             0.5904596204       16.0672247947         129590.9075         0.8     1.0
    74             0.5904596204       16.0672247947         129590.9075         0.8     1.0
    27             0.5988808928       16.2963792892         131439.1632         1.0     1.0
    39             0.5988808928       16.2963792892         131439.1632         1.0     1.0
    28             0.6046091421       16.4522528924         132696.3686         2.7     3.0
    40             0.6046091421       16.4522528924         132696.3686         2.7     3.0
    29             0.6109690859       16.6253157798         134092.2149         1.2     1.0
    41             0.6109690859       16.6253157798         134092.2149         1.2     1.0
     6             0.6243378225       16.9890976359         137026.3134         1.1     0.0
    33             0.6303300039       17.1521531978         138341.4452         1.3     1.0
    21             0.6303300039       17.1521531978         138341.4452         1.3     1.0
    45             0.6316668978       17.1885319357         138634.8595         2.4     2.0
     7             0.6316668978       17.1885319357         138634.8595         2.4     2.0
     8             0.6370472574       17.3349389768         139815.7120         1.7     0.0
    80             0.6405771281       17.4309916518         140590.4290         1.3     1.0
    68             0.6405771281       17.4309916518         140590.4290         1.3     1.0
    62             0.6883587369       18.7311954644         151077.2800         0.9     0.0
    34             0.6904478571       18.7880433216         151535.7889         0.8     1.0
    22             0.6904478571       18.7880433216         151535.7889         0.8     1.0
    23             0.6915505442       18.8180489668         151777.8008         2.7     3.0
    35             0.6915505442       18.8180489668         151777.8008         2.7     3.0
    18             0.7545779676       20.5331125295         165610.7213         0.7     0.0
    63             0.7591481413       20.6574732906         166613.7585         1.9     2.0
    97             0.7591481413       20.6574732906         166613.7585         1.9     2.0
    98             0.7837014138       21.3256018712         172002.5789         0.4     0.0
    52             0.8107675655       22.0621093796         177942.9126         1.1     0.0
    57             0.8227991747       22.3895061443         180583.5455         1.8     2.0
    91             0.8227991747       22.3895061443         180583.5455         1.8     2.0
    92             0.8265991768       22.4929094699         181417.5496         0.8     0.0
    53             0.8274442825       22.5159059692         181603.0289         1.9     2.0
    15             0.8274442825       22.5159059692         181603.0289         1.9     2.0
    46             0.8498680159       23.1260868399         186524.4695         0.4     0.0
     9             0.8605681147       23.4172513609         188872.8697         0.8     0.0
    47             0.8844234662       24.0663885431         194108.5142         1.3     0.0
    10             0.9202925097       25.0424349406         201980.8593         0.8     0.0
    11             0.9456137598       25.7314612564         207538.2313         0.2     0.0
    12             0.9601844533       26.1279500266         210736.1289         0.1     0.0

++ Dipole transition strengths (spin-free states):
   -----------------------------------------------
     for osc. strength at least  1.00000000E-05

      From   To        Osc. strength     Einstein coefficients Ax, Ay, Az (sec-1)    Total A (sec-1)
     -----------------------------------------------------------------------------------------------
        48   94       5.23366606E-02  0.00000000E+00  0.00000000E+00  1.04873226E+08  1.04873226E+08
        48   24       4.94863594E-04  0.00000000E+00  1.12639340E+06  0.00000000E+00  1.12639340E+06
        48   36       4.94863594E-04  1.12639340E+06  0.00000000E+00  0.00000000E+00  1.12639340E+06
        48   25       2.82797622E-03  0.00000000E+00  1.47296732E+07  0.00000000E+00  1.47296732E+07
        48   37       2.82797622E-03  1.47296732E+07  0.00000000E+00  0.00000000E+00  1.47296732E+07
        48   96       1.32589717E-03  0.00000000E+00  0.00000000E+00  9.79175416E+06  9.79175416E+06
        48   26       4.71057845E-03  0.00000000E+00  4.82466376E+07  0.00000000E+00  4.82466376E+07
        48   38       4.71057845E-03  4.82466376E+07  0.00000000E+00  0.00000000E+00  4.82466376E+07
        48   27       9.35292519E-02  0.00000000E+00  1.07780268E+09  0.00000000E+00  1.07780268E+09
        48   39       9.35292519E-02  1.07780268E+09  0.00000000E+00  0.00000000E+00  1.07780268E+09
        48   29       1.84146740E-03  0.00000000E+00  2.20858129E+07  0.00000000E+00  2.20858129E+07
        48   41       1.84146740E-03  2.20858129E+07  0.00000000E+00  0.00000000E+00  2.20858129E+07
        48   98       2.58354973E-01  0.00000000E+00  0.00000000E+00  5.09834205E+09  5.09834205E+09
        43   31       1.23572138E-03  3.33414496E+06  0.00000000E+00  0.00000000E+00  3.33414496E+06
        43   19       1.23572138E-03  0.00000000E+00  3.33414496E+06  0.00000000E+00  3.33414496E+06
        43   89       3.86560213E-02  0.00000000E+00  0.00000000E+00  1.17371645E+08  1.17371645E+08
        43   20       1.25994191E-02  0.00000000E+00  7.44857126E+07  0.00000000E+00  7.44857126E+07
        43   32       1.25994191E-02  7.44857126E+07  0.00000000E+00  0.00000000E+00  7.44857126E+07
        43   33       2.54310142E-03  2.95657965E+07  0.00000000E+00  0.00000000E+00  2.95657965E+07
        43   21       2.54310142E-03  0.00000000E+00  2.95657965E+07  0.00000000E+00  2.95657965E+07
        43   34       5.82719786E-02  8.19643236E+08  0.00000000E+00  0.00000000E+00  8.19643236E+08
        43   22       5.82719786E-02  0.00000000E+00  8.19643236E+08  0.00000000E+00  8.19643236E+08
        43   23       1.03958015E-04  0.00000000E+00  1.46713284E+06  0.00000000E+00  1.46713284E+06
        43   35       1.03958015E-04  1.46713284E+06  0.00000000E+00  0.00000000E+00  1.46713284E+06
        43   91       9.84614319E-01  0.00000000E+00  0.00000000E+00  1.99442385E+10  1.99442385E+10
         1   31       1.23572138E-03  0.00000000E+00  3.33414496E+06  0.00000000E+00  3.33414496E+06
         1   19       1.23572138E-03  3.33414496E+06  0.00000000E+00  0.00000000E+00  3.33414496E+06
         1   55       3.86560213E-02  0.00000000E+00  0.00000000E+00  1.17371645E+08  1.17371645E+08
         1   20       1.25994191E-02  7.44857126E+07  0.00000000E+00  0.00000000E+00  7.44857126E+07
         1   32       1.25994191E-02  0.00000000E+00  7.44857126E+07  0.00000000E+00  7.44857126E+07
         1   33       2.54310142E-03  0.00000000E+00  2.95657965E+07  0.00000000E+00  2.95657965E+07
         1   21       2.54310142E-03  2.95657965E+07  0.00000000E+00  0.00000000E+00  2.95657965E+07
         1   34       5.82719786E-02  0.00000000E+00  8.19643236E+08  0.00000000E+00  8.19643236E+08
         1   22       5.82719786E-02  8.19643236E+08  0.00000000E+00  0.00000000E+00  8.19643236E+08
         1   23       1.03958015E-04  1.46713284E+06  0.00000000E+00  0.00000000E+00  1.46713284E+06
         1   35       1.03958015E-04  0.00000000E+00  1.46713284E+06  0.00000000E+00  1.46713284E+06
         1   57       9.84614319E-01  0.00000000E+00  0.00000000E+00  1.99442385E+10  1.99442385E+10
         2   31       3.18676234E-03  0.00000000E+00  7.73688518E+06  0.00000000E+00  7.73688518E+06
         2   19       3.18676234E-03  7.73688518E+06  0.00000000E+00  0.00000000E+00  7.73688518E+06
         2   56       3.31852383E-02  0.00000000E+00  0.00000000E+00  1.23743957E+08  1.23743957E+08
         2   20       1.30314411E-02  7.17808400E+07  0.00000000E+00  0.00000000E+00  7.17808400E+07
         2   32       1.30314411E-02  0.00000000E+00  7.17808400E+07  0.00000000E+00  7.17808400E+07
         2   33       1.43495658E-03  0.00000000E+00  1.58664462E+07  0.00000000E+00  1.58664462E+07
         2   21       1.43495658E-03  1.58664462E+07  0.00000000E+00  0.00000000E+00  1.58664462E+07
         2   34       4.65117072E-02  0.00000000E+00  6.25092806E+08  0.00000000E+00  6.25092806E+08
         2   22       4.65117072E-02  6.25092806E+08  0.00000000E+00  0.00000000E+00  6.25092806E+08
        88   64       3.56681193E-03  0.00000000E+00  3.03776878E+06  0.00000000E+00  3.03776878E+06
        88   76       3.56681193E-03  3.03776878E+06  0.00000000E+00  0.00000000E+00  3.03776878E+06
        88   65       1.43834417E-03  0.00000000E+00  4.25453381E+06  0.00000000E+00  4.25453381E+06
        88   77       1.43834417E-03  4.25453381E+06  0.00000000E+00  0.00000000E+00  4.25453381E+06
        88   67       9.66433840E-04  0.00000000E+00  5.25626127E+06  0.00000000E+00  5.25626127E+06
        88   79       9.66433840E-04  5.25626127E+06  0.00000000E+00  0.00000000E+00  5.25626127E+06
        88   80       1.68066834E-03  1.44202709E+07  0.00000000E+00  0.00000000E+00  1.44202709E+07
        88   68       1.68066834E-03  0.00000000E+00  1.44202709E+07  0.00000000E+00  1.44202709E+07
        88   46       1.70052935E-01  0.00000000E+00  0.00000000E+00  2.88025597E+09  2.88025597E+09
        88   47       7.85183592E-01  0.00000000E+00  0.00000000E+00  1.45949913E+10  1.45949913E+10
        58   81       1.58873093E-03  0.00000000E+00  5.14054421E+05  0.00000000E+00  5.14054421E+05
        58   69       1.58873093E-03  5.14054421E+05  0.00000000E+00  0.00000000E+00  5.14054421E+05
        58   82       2.17925215E-04  0.00000000E+00  4.70100325E+05  0.00000000E+00  4.70100325E+05
        58   70       2.17925215E-04  4.70100325E+05  0.00000000E+00  0.00000000E+00  4.70100325E+05
        58   71       1.20606211E-03  3.50205959E+06  0.00000000E+00  0.00000000E+00  3.50205959E+06
        58   83       1.20606211E-03  0.00000000E+00  3.50205959E+06  0.00000000E+00  3.50205959E+06
        58   72       5.21819229E-04  1.54806547E+06  0.00000000E+00  0.00000000E+00  1.54806547E+06
        58   84       5.21819229E-04  0.00000000E+00  1.54806547E+06  0.00000000E+00  1.54806547E+06
        58   73       4.07997005E-04  1.49695764E+06  0.00000000E+00  0.00000000E+00  1.49695764E+06
        58   85       4.07997005E-04  0.00000000E+00  1.49695764E+06  0.00000000E+00  1.49695764E+06
        58   13       1.77328179E-03  0.00000000E+00  0.00000000E+00  1.12630473E+07  1.12630473E+07
        58   86       4.67666005E-04  0.00000000E+00  3.16225122E+06  0.00000000E+00  3.16225122E+06
        58   74       4.67666005E-04  3.16225122E+06  0.00000000E+00  0.00000000E+00  3.16225122E+06
        58   15       7.32639261E-02  0.00000000E+00  0.00000000E+00  1.13942757E+09  1.13942757E+09
        93   81       1.58873093E-03  5.14054421E+05  0.00000000E+00  0.00000000E+00  5.14054421E+05
        93   69       1.58873093E-03  0.00000000E+00  5.14054421E+05  0.00000000E+00  5.14054421E+05
        93   82       2.17925215E-04  4.70100325E+05  0.00000000E+00  0.00000000E+00  4.70100325E+05
        93   70       2.17925215E-04  0.00000000E+00  4.70100325E+05  0.00000000E+00  4.70100325E+05
        93   71       1.20606211E-03  0.00000000E+00  3.50205959E+06  0.00000000E+00  3.50205959E+06
        93   83       1.20606211E-03  3.50205959E+06  0.00000000E+00  0.00000000E+00  3.50205959E+06
        93   72       5.21819229E-04  0.00000000E+00  1.54806547E+06  0.00000000E+00  1.54806547E+06
        93   84       5.21819229E-04  1.54806547E+06  0.00000000E+00  0.00000000E+00  1.54806547E+06
        93   73       4.07997005E-04  0.00000000E+00  1.49695764E+06  0.00000000E+00  1.49695764E+06
        93   85       4.07997005E-04  1.49695764E+06  0.00000000E+00  0.00000000E+00  1.49695764E+06
        93   51       1.77328179E-03  0.00000000E+00  0.00000000E+00  1.12630473E+07  1.12630473E+07
        93   86       4.67666005E-04  3.16225122E+06  0.00000000E+00  0.00000000E+00  3.16225122E+06
        93   74       4.67666005E-04  0.00000000E+00  3.16225122E+06  0.00000000E+00  3.16225122E+06
        93   53       7.32639261E-02  0.00000000E+00  0.00000000E+00  1.13942757E+09  1.13942757E+09
        59   81       1.57740063E-03  0.00000000E+00  4.78805506E+05  0.00000000E+00  4.78805506E+05
        59   69       1.57740063E-03  4.78805506E+05  0.00000000E+00  0.00000000E+00  4.78805506E+05
        59   82       1.03777238E-03  0.00000000E+00  2.18446934E+06  0.00000000E+00  2.18446934E+06
        59   70       1.03777238E-03  2.18446934E+06  0.00000000E+00  0.00000000E+00  2.18446934E+06
        59   71       1.56942936E-03  4.46203839E+06  0.00000000E+00  0.00000000E+00  4.46203839E+06
        59   83       1.56942936E-03  0.00000000E+00  4.46203839E+06  0.00000000E+00  4.46203839E+06
        59   73       1.19435952E-05  4.30072280E+04  0.00000000E+00  0.00000000E+00  4.30072280E+04
        59   85       1.19435952E-05  0.00000000E+00  4.30072280E+04  0.00000000E+00  4.30072280E+04
        59   14       1.71935183E-03  0.00000000E+00  0.00000000E+00  1.09226657E+07  1.09226657E+07
        59   86       7.89615736E-04  0.00000000E+00  5.26602754E+06  0.00000000E+00  5.26602754E+06
        59   74       7.89615736E-04  5.26602754E+06  0.00000000E+00  0.00000000E+00  5.26602754E+06
        81   94       5.56177465E-05  5.57913040E+02  0.00000000E+00  0.00000000E+00  5.57913040E+02
        81   36       1.16526202E-05  0.00000000E+00  0.00000000E+00  4.35356027E+02  4.35356027E+02
        81   37       2.56107033E-02  0.00000000E+00  0.00000000E+00  2.39393084E+07  2.39393084E+07
        81   60       4.33409517E-04  0.00000000E+00  6.49265455E+05  0.00000000E+00  6.49265455E+05
        81   95       4.33409517E-04  6.49265455E+05  0.00000000E+00  0.00000000E+00  6.49265455E+05
        81   61       1.27667901E-04  0.00000000E+00  2.13105802E+05  0.00000000E+00  2.13105802E+05
        81   96       2.09284019E-03  4.11445033E+06  0.00000000E+00  0.00000000E+00  4.11445033E+06
        81   38       1.27105612E-03  0.00000000E+00  0.00000000E+00  4.51603528E+06  4.51603528E+06
        81   39       4.55207321E-02  0.00000000E+00  0.00000000E+00  1.96798811E+08  1.96798811E+08
        81   41       4.38166536E-04  0.00000000E+00  0.00000000E+00  2.02122441E+06  2.02122441E+06
        81   98       2.99366689E-04  2.92701024E+06  0.00000000E+00  0.00000000E+00  2.92701024E+06
        69   94       5.56177465E-05  0.00000000E+00  5.57913040E+02  0.00000000E+00  5.57913040E+02
        69   24       1.16526202E-05  0.00000000E+00  0.00000000E+00  4.35356027E+02  4.35356027E+02
        69   25       2.56107033E-02  0.00000000E+00  0.00000000E+00  2.39393084E+07  2.39393084E+07
        69   60       4.33409517E-04  6.49265455E+05  0.00000000E+00  0.00000000E+00  6.49265455E+05
        69   95       4.33409517E-04  0.00000000E+00  6.49265455E+05  0.00000000E+00  6.49265455E+05
        69   61       1.27667901E-04  2.13105802E+05  0.00000000E+00  0.00000000E+00  2.13105802E+05
        69   96       2.09284019E-03  0.00000000E+00  4.11445033E+06  0.00000000E+00  4.11445033E+06
        69   26       1.27105612E-03  0.00000000E+00  0.00000000E+00  4.51603528E+06  4.51603528E+06
        69   27       4.55207321E-02  0.00000000E+00  0.00000000E+00  1.96798811E+08  1.96798811E+08
        69   29       4.38166536E-04  0.00000000E+00  0.00000000E+00  2.02122441E+06  2.02122441E+06
        69   98       2.99366689E-04  0.00000000E+00  2.92701024E+06  0.00000000E+00  2.92701024E+06
        94   49       7.61623566E-02  0.00000000E+00  0.00000000E+00  4.36010266E+07  4.36010266E+07
        94   71       5.85467807E-05  0.00000000E+00  6.27224682E+04  0.00000000E+00  6.27224682E+04
        94   83       5.85467807E-05  6.27224682E+04  0.00000000E+00  0.00000000E+00  6.27224682E+04
        94   73       8.05811332E-05  0.00000000E+00  1.25202357E+05  0.00000000E+00  1.25202357E+05
        94   85       8.05811332E-05  1.25202357E+05  0.00000000E+00  0.00000000E+00  1.25202357E+05
        94   50       2.08110998E-03  0.00000000E+00  0.00000000E+00  5.05187104E+06  5.05187104E+06
        94   86       6.04519447E-05  2.25494690E+05  0.00000000E+00  0.00000000E+00  2.25494690E+05
        94   74       6.04519447E-05  0.00000000E+00  2.25494690E+05  0.00000000E+00  2.25494690E+05
        94   52       9.35776020E-03  0.00000000E+00  0.00000000E+00  9.46376335E+07  9.46376335E+07
        24   49       2.42624821E-05  0.00000000E+00  1.06806774E+04  0.00000000E+00  1.06806774E+04
        24   70       4.46449370E-03  0.00000000E+00  0.00000000E+00  2.22912486E+06  2.22912486E+06
        24   73       2.01041190E-03  0.00000000E+00  0.00000000E+00  2.67431788E+06  2.67431788E+06
        24   50       8.40857247E-04  0.00000000E+00  1.80443590E+06  0.00000000E+00  1.80443590E+06
        24   51       3.92372240E-04  0.00000000E+00  1.21279944E+06  0.00000000E+00  1.21279944E+06
        24   13       3.92372240E-04  1.21279944E+06  0.00000000E+00  0.00000000E+00  1.21279944E+06
        24   14       9.08105068E-05  2.86508608E+05  0.00000000E+00  0.00000000E+00  2.86508608E+05
        24   74       9.15241952E-02  0.00000000E+00  0.00000000E+00  3.09266591E+08  3.09266591E+08
        24   52       4.20499018E-02  0.00000000E+00  4.00718354E+08  0.00000000E+00  4.00718354E+08
        24   53       3.86851839E-02  0.00000000E+00  3.91577252E+08  0.00000000E+00  3.91577252E+08
        24   15       3.86851839E-02  3.91577252E+08  0.00000000E+00  0.00000000E+00  3.91577252E+08
        36   49       2.42624821E-05  1.06806774E+04  0.00000000E+00  0.00000000E+00  1.06806774E+04
        36   82       4.46449370E-03  0.00000000E+00  0.00000000E+00  2.22912486E+06  2.22912486E+06
        36   85       2.01041190E-03  0.00000000E+00  0.00000000E+00  2.67431788E+06  2.67431788E+06
        36   50       8.40857247E-04  1.80443590E+06  0.00000000E+00  0.00000000E+00  1.80443590E+06
        36   51       3.92372240E-04  1.21279944E+06  0.00000000E+00  0.00000000E+00  1.21279944E+06
        36   13       3.92372240E-04  0.00000000E+00  1.21279944E+06  0.00000000E+00  1.21279944E+06
        36   14       9.08105068E-05  0.00000000E+00  2.86508608E+05  0.00000000E+00  2.86508608E+05
        36   86       9.15241952E-02  0.00000000E+00  0.00000000E+00  3.09266591E+08  3.09266591E+08
        36   52       4.20499018E-02  4.00718354E+08  0.00000000E+00  0.00000000E+00  4.00718354E+08
        36   53       3.86851839E-02  3.91577252E+08  0.00000000E+00  0.00000000E+00  3.91577252E+08
        36   15       3.86851839E-02  0.00000000E+00  3.91577252E+08  0.00000000E+00  3.91577252E+08
        64   89       5.00593135E-05  0.00000000E+00  3.95432646E+03  0.00000000E+00  3.95432646E+03
        64   55       5.00593135E-05  3.95432646E+03  0.00000000E+00  0.00000000E+00  3.95432646E+03
        64   20       2.55328343E-02  0.00000000E+00  0.00000000E+00  2.40229838E+07  2.40229838E+07
        64   90       2.85879291E-03  0.00000000E+00  5.59996225E+06  0.00000000E+00  5.59996225E+06
        64   21       2.36540781E-04  0.00000000E+00  0.00000000E+00  8.97814604E+05  8.97814604E+05
        64   22       1.36770568E-02  0.00000000E+00  0.00000000E+00  7.16611318E+07  7.16611318E+07
        64   57       6.97977550E-04  6.44707716E+06  0.00000000E+00  0.00000000E+00  6.44707716E+06
        64   91       6.97977550E-04  0.00000000E+00  6.44707716E+06  0.00000000E+00  6.44707716E+06
        64   92       2.60782488E-05  0.00000000E+00  2.44305951E+05  0.00000000E+00  2.44305951E+05
        76   89       5.00593135E-05  3.95432646E+03  0.00000000E+00  0.00000000E+00  3.95432646E+03
        76   55       5.00593135E-05  0.00000000E+00  3.95432646E+03  0.00000000E+00  3.95432646E+03
        76   32       2.55328343E-02  0.00000000E+00  0.00000000E+00  2.40229838E+07  2.40229838E+07
        76   90       2.85879291E-03  5.59996225E+06  0.00000000E+00  0.00000000E+00  5.59996225E+06
        76   33       2.36540781E-04  0.00000000E+00  0.00000000E+00  8.97814604E+05  8.97814604E+05
        76   34       1.36770568E-02  0.00000000E+00  0.00000000E+00  7.16611318E+07  7.16611318E+07
        76   57       6.97977550E-04  0.00000000E+00  6.44707716E+06  0.00000000E+00  6.44707716E+06
        76   91       6.97977550E-04  6.44707716E+06  0.00000000E+00  0.00000000E+00  6.44707716E+06
        76   92       2.60782488E-05  2.44305951E+05  0.00000000E+00  0.00000000E+00  2.44305951E+05
        31   77       5.18969904E-03  0.00000000E+00  0.00000000E+00  1.96828195E+06  1.96828195E+06
        31    5       1.85115104E-05  0.00000000E+00  2.29426290E+04  0.00000000E+00  2.29426290E+04
        31   79       1.83147050E-03  0.00000000E+00  0.00000000E+00  2.76231800E+06  2.76231800E+06
        31    6       2.20086981E-03  0.00000000E+00  6.61067592E+06  0.00000000E+00  6.61067592E+06
        31   45       9.71107036E-04  3.05839508E+06  0.00000000E+00  0.00000000E+00  3.05839508E+06
        31    7       9.71107036E-04  0.00000000E+00  3.05839508E+06  0.00000000E+00  3.05839508E+06
        31    8       1.12310344E-03  0.00000000E+00  3.65970661E+06  0.00000000E+00  3.65970661E+06
        31   80       6.39677820E-02  0.00000000E+00  0.00000000E+00  2.13089662E+08  2.13089662E+08
        31   46       7.62258213E-02  6.91297007E+08  0.00000000E+00  0.00000000E+00  6.91297007E+08
        31    9       3.47620345E-04  0.00000000E+00  3.28085776E+06  0.00000000E+00  3.28085776E+06
        31   47       1.97317443E-04  2.02983681E+06  0.00000000E+00  0.00000000E+00  2.02983681E+06
        31   11       2.92044656E-02  0.00000000E+00  3.68922305E+08  0.00000000E+00  3.68922305E+08
        31   12       3.72439525E-02  0.00000000E+00  4.92600066E+08  0.00000000E+00  4.92600066E+08
        19   65       5.18969904E-03  0.00000000E+00  0.00000000E+00  1.96828195E+06  1.96828195E+06
        19    5       1.85115104E-05  2.29426290E+04  0.00000000E+00  0.00000000E+00  2.29426290E+04
        19   67       1.83147050E-03  0.00000000E+00  0.00000000E+00  2.76231800E+06  2.76231800E+06
        19    6       2.20086981E-03  6.61067592E+06  0.00000000E+00  0.00000000E+00  6.61067592E+06
        19   45       9.71107036E-04  0.00000000E+00  3.05839508E+06  0.00000000E+00  3.05839508E+06
        19    7       9.71107036E-04  3.05839508E+06  0.00000000E+00  0.00000000E+00  3.05839508E+06
        19    8       1.12310344E-03  3.65970661E+06  0.00000000E+00  0.00000000E+00  3.65970661E+06
        19   68       6.39677820E-02  0.00000000E+00  0.00000000E+00  2.13089662E+08  2.13089662E+08
        19   46       7.62258213E-02  0.00000000E+00  6.91297007E+08  0.00000000E+00  6.91297007E+08
        19    9       3.47620345E-04  3.28085776E+06  0.00000000E+00  0.00000000E+00  3.28085776E+06
        19   47       1.97317443E-04  0.00000000E+00  2.02983681E+06  0.00000000E+00  2.02983681E+06
        19   11       2.92044656E-02  3.68922305E+08  0.00000000E+00  0.00000000E+00  3.68922305E+08
        19   12       3.72439525E-02  4.92600066E+08  0.00000000E+00  0.00000000E+00  4.92600066E+08
        75   99       8.39903464E-04  0.00000000E+00  6.15992405E+04  0.00000000E+00  6.15992405E+04
        75   30       6.42837595E-02  0.00000000E+00  0.00000000E+00  7.25854467E+07  7.25854467E+07
        87   99       8.39903464E-04  6.15992405E+04  0.00000000E+00  0.00000000E+00  6.15992405E+04
        87   42       6.42837595E-02  0.00000000E+00  0.00000000E+00  7.25854467E+07  7.25854467E+07
        89   65       1.13971806E-05  0.00000000E+00  3.03393525E+03  0.00000000E+00  3.03393525E+03
        89   77       1.13971806E-05  3.03393525E+03  0.00000000E+00  0.00000000E+00  3.03393525E+03
        89   44       6.78348059E-02  0.00000000E+00  0.00000000E+00  2.50283089E+07  2.50283089E+07
        89   66       6.16455113E-05  0.00000000E+00  5.50603574E+04  0.00000000E+00  5.50603574E+04
        89   78       6.16455113E-05  5.50603574E+04  0.00000000E+00  0.00000000E+00  5.50603574E+04
        89   67       3.13373874E-05  0.00000000E+00  3.98879305E+04  0.00000000E+00  3.98879305E+04
        89   79       3.13373874E-05  3.98879305E+04  0.00000000E+00  0.00000000E+00  3.98879305E+04
        89   45       3.28968141E-03  0.00000000E+00  0.00000000E+00  9.22687688E+06  9.22687688E+06
        89   80       5.95909759E-04  1.77373427E+06  0.00000000E+00  0.00000000E+00  1.77373427E+06
        89   68       5.95909759E-04  0.00000000E+00  1.77373427E+06  0.00000000E+00  1.77373427E+06
        55   65       1.13971806E-05  3.03393525E+03  0.00000000E+00  0.00000000E+00  3.03393525E+03
        55   77       1.13971806E-05  0.00000000E+00  3.03393525E+03  0.00000000E+00  3.03393525E+03
        55    3       6.78348059E-02  0.00000000E+00  0.00000000E+00  2.50283089E+07  2.50283089E+07
        55   66       6.16455113E-05  5.50603574E+04  0.00000000E+00  0.00000000E+00  5.50603574E+04
        55   78       6.16455113E-05  0.00000000E+00  5.50603574E+04  0.00000000E+00  5.50603574E+04
        55   67       3.13373874E-05  3.98879305E+04  0.00000000E+00  0.00000000E+00  3.98879305E+04
        55   79       3.13373874E-05  0.00000000E+00  3.98879305E+04  0.00000000E+00  3.98879305E+04
        55    7       3.28968141E-03  0.00000000E+00  0.00000000E+00  9.22687688E+06  9.22687688E+06
        55   80       5.95909759E-04  0.00000000E+00  1.77373427E+06  0.00000000E+00  1.77373427E+06
        55   68       5.95909759E-04  1.77373427E+06  0.00000000E+00  0.00000000E+00  1.77373427E+06
        55   11       6.51516195E-03  0.00000000E+00  0.00000000E+00  7.77404765E+07  7.77404765E+07
        49   25       2.11071606E-04  0.00000000E+00  2.55592595E+03  0.00000000E+00  2.55592595E+03
        49   37       2.11071606E-04  2.55592595E+03  0.00000000E+00  0.00000000E+00  2.55592595E+03
        49   26       6.75653612E-05  0.00000000E+00  7.14239621E+04  0.00000000E+00  7.14239621E+04
        49   38       6.75653612E-05  7.14239621E+04  0.00000000E+00  0.00000000E+00  7.14239621E+04
        49   27       6.13959775E-05  0.00000000E+00  9.17526235E+04  0.00000000E+00  9.17526235E+04
        49   39       6.13959775E-05  9.17526235E+04  0.00000000E+00  0.00000000E+00  9.17526235E+04
        49   29       5.15196400E-04  0.00000000E+00  8.58658669E+05  0.00000000E+00  8.58658669E+05
        49   41       5.15196400E-04  8.58658669E+05  0.00000000E+00  0.00000000E+00  8.58658669E+05
        49   98       2.93783286E-04  0.00000000E+00  0.00000000E+00  1.51396593E+06  1.51396593E+06
        56    4       3.10287774E-02  0.00000000E+00  0.00000000E+00  5.04324415E+06  5.04324415E+06
        56    5       2.96426974E-02  0.00000000E+00  0.00000000E+00  1.62492124E+07  1.62492124E+07
        56    6       4.03082093E-04  0.00000000E+00  0.00000000E+00  7.45784689E+05  7.45784689E+05
        56    8       4.50965339E-03  0.00000000E+00  0.00000000E+00  9.25101224E+06  9.25101224E+06
        56   80       1.52468420E-03  0.00000000E+00  3.21570395E+06  0.00000000E+00  3.21570395E+06
        56   68       1.52468420E-03  3.21570395E+06  0.00000000E+00  0.00000000E+00  3.21570395E+06
        56   12       4.40432795E-03  0.00000000E+00  0.00000000E+00  4.69198838E+07  4.69198838E+07
        82   60       2.57458445E-04  0.00000000E+00  2.70340392E+04  0.00000000E+00  2.70340392E+04
        82   95       2.57458445E-04  2.70340392E+04  0.00000000E+00  0.00000000E+00  2.70340392E+04
        82   61       1.05571141E-04  0.00000000E+00  1.62291319E+04  0.00000000E+00  1.62291319E+04
        82   96       3.51744692E-04  8.87209267E+04  0.00000000E+00  0.00000000E+00  8.87209267E+04
        82   38       3.56917130E-02  0.00000000E+00  0.00000000E+00  3.46312450E+07  3.46312450E+07
        82   39       1.16955035E-04  0.00000000E+00  0.00000000E+00  1.62667984E+05  1.62667984E+05
        82   41       1.27119441E-02  0.00000000E+00  0.00000000E+00  1.97946791E+07  1.97946791E+07
        82   62       1.64532500E-03  0.00000000E+00  4.67997538E+06  0.00000000E+00  4.67997538E+06
        82   63       6.88297169E-05  0.00000000E+00  3.00021094E+05  0.00000000E+00  3.00021094E+05
        82   97       6.88297169E-05  3.00021093E+05  0.00000000E+00  0.00000000E+00  3.00021093E+05
        82   98       1.59276729E-05  7.89917261E+04  0.00000000E+00  0.00000000E+00  7.89917261E+04
        70   60       2.57458445E-04  2.70340392E+04  0.00000000E+00  0.00000000E+00  2.70340392E+04
        70   95       2.57458445E-04  0.00000000E+00  2.70340392E+04  0.00000000E+00  2.70340392E+04
        70   61       1.05571141E-04  1.62291319E+04  0.00000000E+00  0.00000000E+00  1.62291319E+04
        70   96       3.51744692E-04  0.00000000E+00  8.87209267E+04  0.00000000E+00  8.87209267E+04
        70   26       3.56917130E-02  0.00000000E+00  0.00000000E+00  3.46312450E+07  3.46312450E+07
        70   27       1.16955035E-04  0.00000000E+00  0.00000000E+00  1.62667984E+05  1.62667984E+05
        70   29       1.27119441E-02  0.00000000E+00  0.00000000E+00  1.97946791E+07  1.97946791E+07
        70   62       1.64532500E-03  4.67997538E+06  0.00000000E+00  0.00000000E+00  4.67997538E+06
        70   63       6.88297169E-05  3.00021093E+05  0.00000000E+00  0.00000000E+00  3.00021093E+05
        70   97       6.88297169E-05  0.00000000E+00  3.00021093E+05  0.00000000E+00  3.00021093E+05
        70   98       1.59276729E-05  0.00000000E+00  7.89917261E+04  0.00000000E+00  7.89917261E+04
        25   73       2.03883090E-05  0.00000000E+00  0.00000000E+00  2.94142896E+03  2.94142896E+03
        25   50       5.26529039E-05  0.00000000E+00  2.51682178E+04  0.00000000E+00  2.51682178E+04
        25   51       3.14012524E-04  0.00000000E+00  3.04402418E+05  0.00000000E+00  3.04402418E+05
        25   13       3.14012524E-04  3.04402418E+05  0.00000000E+00  0.00000000E+00  3.04402418E+05
        25   14       1.47637484E-04  1.48438250E+05  0.00000000E+00  0.00000000E+00  1.48438250E+05
        25   52       1.93367194E-03  0.00000000E+00  1.03493369E+07  0.00000000E+00  1.03493369E+07
        25   53       5.61165744E-04  0.00000000E+00  3.25391152E+06  0.00000000E+00  3.25391152E+06
        25   15       5.61165744E-04  3.25391152E+06  0.00000000E+00  0.00000000E+00  3.25391152E+06
        37   85       2.03883090E-05  0.00000000E+00  0.00000000E+00  2.94142896E+03  2.94142896E+03
        37   50       5.26529039E-05  2.51682178E+04  0.00000000E+00  0.00000000E+00  2.51682178E+04
        37   51       3.14012524E-04  3.04402418E+05  0.00000000E+00  0.00000000E+00  3.04402418E+05
        37   13       3.14012524E-04  0.00000000E+00  3.04402418E+05  0.00000000E+00  3.04402418E+05
        37   14       1.47637484E-04  0.00000000E+00  1.48438250E+05  0.00000000E+00  1.48438250E+05
        37   52       1.93367194E-03  1.03493369E+07  0.00000000E+00  0.00000000E+00  1.03493369E+07
        37   53       5.61165744E-04  3.25391152E+06  0.00000000E+00  0.00000000E+00  3.25391152E+06
        37   15       5.61165744E-04  0.00000000E+00  3.25391152E+06  0.00000000E+00  3.25391152E+06
        65   90       2.46535872E-04  0.00000000E+00  8.95203120E+04  0.00000000E+00  8.95203120E+04
        65   21       3.65914986E-02  0.00000000E+00  0.00000000E+00  4.84956252E+07  4.84956252E+07
        65   22       1.95469317E-04  0.00000000E+00  0.00000000E+00  4.35124672E+05  4.35124672E+05
        65   57       1.23353286E-02  6.20157766E+07  0.00000000E+00  0.00000000E+00  6.20157766E+07
        65   91       1.23353286E-02  0.00000000E+00  6.20157766E+07  0.00000000E+00  6.20157766E+07
        65   92       6.26410931E-05  0.00000000E+00  3.21007393E+05  0.00000000E+00  3.21007393E+05
        77   90       2.46535872E-04  8.95203120E+04  0.00000000E+00  0.00000000E+00  8.95203120E+04
        77   33       3.65914986E-02  0.00000000E+00  0.00000000E+00  4.84956252E+07  4.84956252E+07
        77   34       1.95469317E-04  0.00000000E+00  0.00000000E+00  4.35124673E+05  4.35124673E+05
        77   57       1.23353286E-02  0.00000000E+00  6.20157766E+07  0.00000000E+00  6.20157766E+07
        77   91       1.23353286E-02  6.20157766E+07  0.00000000E+00  0.00000000E+00  6.20157766E+07
        77   92       6.26410931E-05  3.21007393E+05  0.00000000E+00  0.00000000E+00  3.21007393E+05
        71   96       1.73560424E-04  0.00000000E+00  1.23660749E+04  0.00000000E+00  1.23660749E+04
        71   26       1.87155762E-03  0.00000000E+00  0.00000000E+00  1.05199832E+06  1.05199832E+06
        71   27       9.97176996E-04  0.00000000E+00  0.00000000E+00  8.88708187E+05  8.88708187E+05
        71   29       4.16494620E-02  0.00000000E+00  0.00000000E+00  4.27028225E+07  4.27028225E+07
        71   62       4.46964968E-04  9.41347909E+05  0.00000000E+00  0.00000000E+00  9.41347909E+05
        71   63       2.10685010E-04  7.23015685E+05  0.00000000E+00  0.00000000E+00  7.23015685E+05
        71   97       2.10685010E-04  0.00000000E+00  7.23015685E+05  0.00000000E+00  7.23015685E+05
        71   98       5.20088992E-03  0.00000000E+00  2.06306504E+07  0.00000000E+00  2.06306504E+07
        83   96       1.73560424E-04  1.23660749E+04  0.00000000E+00  0.00000000E+00  1.23660749E+04
        83   38       1.87155762E-03  0.00000000E+00  0.00000000E+00  1.05199832E+06  1.05199832E+06
        83   39       9.97176996E-04  0.00000000E+00  0.00000000E+00  8.88708187E+05  8.88708187E+05
        83   41       4.16494620E-02  0.00000000E+00  0.00000000E+00  4.27028225E+07  4.27028225E+07
        83   62       4.46964968E-04  0.00000000E+00  9.41347909E+05  0.00000000E+00  9.41347909E+05
        83   63       2.10685010E-04  0.00000000E+00  7.23015685E+05  0.00000000E+00  7.23015685E+05
        83   97       2.10685010E-04  7.23015685E+05  0.00000000E+00  0.00000000E+00  7.23015685E+05
        83   98       5.20088992E-03  2.06306504E+07  0.00000000E+00  0.00000000E+00  2.06306504E+07
        72   60       5.08189047E-05  2.51641849E+02  0.00000000E+00  0.00000000E+00  2.51641849E+02
        72   95       5.08189047E-05  0.00000000E+00  2.51641849E+02  0.00000000E+00  2.51641849E+02
        72   28       4.90446632E-02  0.00000000E+00  0.00000000E+00  4.50248362E+07  4.50248362E+07
        72   63       8.76073376E-04  2.94711191E+06  0.00000000E+00  0.00000000E+00  2.94711191E+06
        72   97       8.76073376E-04  0.00000000E+00  2.94711191E+06  0.00000000E+00  2.94711191E+06
        84   60       5.08189047E-05  0.00000000E+00  2.51641849E+02  0.00000000E+00  2.51641849E+02
        84   95       5.08189047E-05  2.51641849E+02  0.00000000E+00  0.00000000E+00  2.51641849E+02
        84   40       4.90446632E-02  0.00000000E+00  0.00000000E+00  4.50248362E+07  4.50248362E+07
        84   63       8.76073376E-04  0.00000000E+00  2.94711191E+06  0.00000000E+00  2.94711191E+06
        84   97       8.76073376E-04  2.94711191E+06  0.00000000E+00  0.00000000E+00  2.94711191E+06
        44   20       1.69518814E-04  0.00000000E+00  1.12613832E+03  0.00000000E+00  1.12613832E+03
        44   32       1.69518814E-04  1.12613832E+03  0.00000000E+00  0.00000000E+00  1.12613832E+03
        44   33       2.62237599E-04  2.94513018E+05  0.00000000E+00  0.00000000E+00  2.94513018E+05
        44   21       2.62237599E-04  0.00000000E+00  2.94513018E+05  0.00000000E+00  2.94513018E+05
        44   34       1.90692933E-04  3.74036573E+05  0.00000000E+00  0.00000000E+00  3.74036573E+05
        44   22       1.90692933E-04  0.00000000E+00  3.74036574E+05  0.00000000E+00  3.74036574E+05
        44   23       4.11554356E-04  0.00000000E+00  8.14468857E+05  0.00000000E+00  8.14468857E+05
        44   35       4.11554356E-04  8.14468857E+05  0.00000000E+00  0.00000000E+00  8.14468857E+05
         3   20       1.69518814E-04  1.12613832E+03  0.00000000E+00  0.00000000E+00  1.12613832E+03
         3   32       1.69518814E-04  0.00000000E+00  1.12613832E+03  0.00000000E+00  1.12613832E+03
         3   33       2.62237599E-04  0.00000000E+00  2.94513018E+05  0.00000000E+00  2.94513018E+05
         3   21       2.62237599E-04  2.94513018E+05  0.00000000E+00  0.00000000E+00  2.94513018E+05
         3   34       1.90692933E-04  0.00000000E+00  3.74036574E+05  0.00000000E+00  3.74036574E+05
         3   22       1.90692933E-04  3.74036573E+05  0.00000000E+00  0.00000000E+00  3.74036573E+05
         3   23       4.11554356E-04  8.14468857E+05  0.00000000E+00  0.00000000E+00  8.14468857E+05
         3   35       4.11554356E-04  0.00000000E+00  8.14468857E+05  0.00000000E+00  8.14468857E+05
        60   13       2.84421271E-04  0.00000000E+00  0.00000000E+00  1.50512135E+05  1.50512135E+05
        60   86       4.29810600E-05  0.00000000E+00  2.80309210E+04  0.00000000E+00  2.80309210E+04
        60   74       4.29810600E-05  2.80309210E+04  0.00000000E+00  0.00000000E+00  2.80309210E+04
        60   15       2.61409023E-04  0.00000000E+00  0.00000000E+00  1.20935049E+06  1.20935049E+06
[...]
        95   73      --------------- below threshold  2.35880119E-04
        95   85      --------------- below threshold  2.35880119E-04
        95   51            66.487690  2.84421271E-04  8.48706846E-04
        95   86            98.617962  4.29810600E-05  3.10997683E-03
        95   74            98.617962  4.29810600E-05  3.10997683E-03
        95   53            95.184655  2.61409023E-04  5.42866668E-03
         4   20      --------------- below threshold  3.47462668E-02
         4   32      --------------- below threshold  3.47462668E-02
         4   33            85.080213  8.91767477E-05  5.97707930E-04
         4   21            85.080213  8.91767477E-05  5.97707930E-04
         4   34            98.141021  1.52963052E-05  8.22833800E-04
         4   22            98.141021  1.52963052E-05  8.22833799E-04
        20    5           261.217441  1.83951032E-03  5.09252907E-04
        20   67           158.937739  2.88749353E-05  1.11513043E-05
        20    6      --------------- below threshold  1.46559787E-04
        20   45            31.476244  4.29897507E-04  6.27370029E-04
        20    7            31.476244  4.29897507E-04  6.27370029E-04
        20    8            97.992309  5.23016900E-05  2.60506617E-03
        20   68           226.391022  9.00534545E-05  2.75906653E-05
        20   46           461.597891  3.95798094E-03  7.04771332E-04
        20    9      ---------------  1.70401218E-05 below threshold
        20   47            27.607907  1.69802934E-04  2.34560057E-04
        20   11      --------------- below threshold  1.88281254E-05
        20   12            78.240816  1.48258474E-04  8.31787451E-05
        32    5           261.217441  1.83951032E-03  5.09252907E-04
        32   79           158.937739  2.88749353E-05  1.11513043E-05
        32    6      --------------- below threshold  1.46559787E-04
        32   45            31.476244  4.29897507E-04  6.27370029E-04
        32    7            31.476244  4.29897507E-04  6.27370029E-04
        32    8            97.992309  5.23016900E-05  2.60506617E-03
        32   80           226.391022  9.00534545E-05  2.75906653E-05
        32   46           461.597891  3.95798094E-03  7.04771332E-04
        32    9      ---------------  1.70401218E-05 below threshold
        32   47            27.607907  1.69802934E-04  2.34560057E-04
        32   11      --------------- below threshold  1.88281254E-05
        32   12            78.240816  1.48258474E-04  8.31787451E-05
        61   73            99.767763  4.52327463E-05  1.94769739E-02
        61   85            99.767763  4.52327463E-05  1.94769739E-02
        61   14            64.789072  3.26448196E-04  9.27121817E-04
        61   86            97.738184  5.30423129E-05  2.34512049E-03
        61   74            97.738184  5.30423129E-05  2.34512049E-03
        73   96      --------------- below threshold  1.78756357E-02
        73   27            43.615023  1.17117100E-02  2.07709759E-02
        73   29            41.770777  8.83613866E-04  6.23269394E-04
        73   62      ---------------  2.43145301E-05 below threshold
        73   63          4096.898616  8.39387643E-04  2.00001887E-05
        73   97          4096.898617  8.39387643E-04  2.00001887E-05
        73   98          3578.507335  1.95260212E-03  5.30813710E-05
        85   96      --------------- below threshold  1.78756357E-02
        85   39            43.615023  1.17117100E-02  2.07709759E-02
        85   41            41.770777  8.83613866E-04  6.23269394E-04
        85   62      ---------------  2.43145301E-05 below threshold
        85   63          4096.898617  8.39387643E-04  2.00001887E-05
        85   97          4096.898616  8.39387643E-04  2.00001887E-05
        85   98          3578.507334  1.95260212E-03  5.30813710E-05
        16   30            99.338860  8.46369636E-05  1.28016636E-02
        16   42            99.338860  8.46369636E-05  1.28016636E-02
        54   30            99.338860  8.46369636E-05  1.28016636E-02
        54   42            99.338860  8.46369636E-05  1.28016636E-02
        96   50            35.284816  4.74305143E-05  7.32911687E-05
        96   86            99.778434  1.87626788E-05  8.46822758E-03
        96   74            99.778434  1.87626788E-05  8.46822758E-03
        96   52           175.526903  3.67613470E-02  1.33421987E-02
        17   30            99.223349  5.02112845E-05  6.46510300E-03
        17   42            99.223349  5.02112845E-05  6.46510300E-03
        66   23            66.376640  6.26173563E-02  3.76359063E-02
        66   57            21.774629  3.32449120E-03  2.73003598E-03
        66   91            21.774629  3.32449120E-03  2.73003598E-03
        78   35            66.376640  6.26173563E-02  3.76359063E-02
        78   57            21.774629  3.32449120E-03  2.73003598E-03
        78   91            21.774629  3.32449120E-03  2.73003598E-03
        30   18            67.494279  1.22582647E-03  3.77110989E-03
        42   18            67.494279  1.22582647E-03  3.77110989E-03
         5   33      --------------- below threshold  7.44770771E-05
         5   21      --------------- below threshold  7.44770771E-05
         5   34            40.712742  8.56522646E-04  1.44469938E-03
         5   22            40.712742  8.56522646E-04  1.44469938E-03
        50   26            97.843587  8.79581642E-05  4.07891133E-03
        50   38            97.843587  8.79581642E-05  4.07891133E-03
        50   27            91.367919  1.16324933E-04  1.34758860E-03
        50   39            91.367919  1.16324933E-04  1.34758860E-03
        50   29            98.139547  4.05138526E-05  2.17763423E-03
        50   41            98.139547  4.05138526E-05  2.17763423E-03
        50   98            62.120085  6.76890607E-04  1.78693801E-03
        90   67      --------------- below threshold  1.51263532E-01
        90   79      --------------- below threshold  1.51263532E-01
        90   80            99.710645  3.53737715E-05  1.22250392E-02
        90   68            99.710645  3.53737715E-05  1.22250392E-02
        90   46            95.246113  3.67894723E-02  1.88426145E-02
        90   47            38.680032  3.28546040E-02  2.36909405E-02
        67   21           231.301093  5.15969118E-04  1.55740240E-04
        67   57            37.826372  8.92932659E-04  6.47867784E-04
        67   91            37.826372  8.92932659E-04  6.47867784E-04
        67   92      ---------------  1.28476487E-03 below threshold
        79   33           231.301093  5.15969118E-04  1.55740240E-04
        79   57            37.826372  8.92932659E-04  6.47867784E-04
        79   91            37.826372  8.92932659E-04  6.47867784E-04
        79   92      ---------------  1.28476487E-03 below threshold
        26   51      --------------- below threshold  3.09570970E-05
        26   13      --------------- below threshold  3.09570970E-05
        26   14            99.870265  1.28660423E-05  9.91717970E-03
        26   74      ---------------  8.36386421E-04 below threshold
        26   52            34.293096  6.33165002E-03  9.63620205E-03
        26   53      --------------- below threshold  1.94026601E-05
        26   15      --------------- below threshold  1.94026601E-05
        38   51      --------------- below threshold  3.09570970E-05
        38   13      --------------- below threshold  3.09570970E-05
        38   14            99.870265  1.28660423E-05  9.91717970E-03
        38   86      ---------------  8.36386421E-04 below threshold
        38   52            34.293096  6.33165002E-03  9.63620205E-03
        38   53      --------------- below threshold  1.94026601E-05
        38   15      --------------- below threshold  1.94026601E-05
        51   27            96.915302  1.46954925E-05  4.76399649E-04
        51   39            96.915302  1.46954925E-05  4.76399649E-04
        51   28            99.219536  6.71883336E-05  8.60877215E-03
        51   40            99.219536  6.71883336E-05  8.60877215E-03
        51   29            99.682516  1.75121423E-05  5.51591873E-03
        51   41            99.682516  1.75121423E-05  5.51591873E-03
        51   97            75.322459  1.05417025E-05  4.27177991E-05
        13   27            96.915302  1.46954925E-05  4.76399649E-04
        13   39            96.915302  1.46954925E-05  4.76399649E-04
        13   28            99.219536  6.71883336E-05  8.60877215E-03
        13   40            99.219536  6.71883336E-05  8.60877215E-03
        13   29            99.682516  1.75121423E-05  5.51591873E-03
        13   41            99.682516  1.75121423E-05  5.51591873E-03
        13   63            75.322459  1.05417025E-05  4.27177991E-05
        14   27            97.258699  1.38909787E-05  5.06729387E-04
        14   39            97.258699  1.38909787E-05  5.06729387E-04
        14   29            99.606748  5.27709987E-05  1.34191429E-02
        14   41            99.606748  5.27709987E-05  1.34191429E-02
        86   39            99.964048  1.05047874E-05  2.92189525E-02
        86   41      --------------- below threshold  8.93003054E-04
        86   62      --------------- below threshold  2.46334788E-03
        86   63            98.152446  3.71194195E-05  2.00911121E-03
        86   97            98.152446  3.71194195E-05  2.00911121E-03
        86   98            67.411993  2.98840276E-04  9.17025313E-04
        74   27            99.964048  1.05047874E-05  2.92189525E-02
        74   29      --------------- below threshold  8.93003054E-04
        74   62      --------------- below threshold  2.46334788E-03
        74   63            98.152446  3.71194195E-05  2.00911121E-03
        74   97            98.152446  3.71194195E-05  2.00911121E-03
        74   98            67.411993  2.98840276E-04  9.17025313E-04
        27   52            69.399000  1.87863235E-04  6.13912069E-04
        27   53            90.231898  1.03024648E-03  5.41573991E-04
        27   15            90.231898  1.03024648E-03  5.41573991E-04
        39   52            69.399000  1.87863235E-04  6.13912069E-04
        39   53            90.231898  1.03024648E-03  5.41573991E-04
        39   15            90.231898  1.03024648E-03  5.41573991E-04
        28   53            63.993191  3.98645358E-03  1.10713883E-02
        28   15            63.993191  3.98645358E-03  1.10713883E-02
        40   53            63.993191  3.98645358E-03  1.10713883E-02
        40   15            63.993191  3.98645358E-03  1.10713883E-02
        29   52            16.394402  1.50867726E-04  1.80451704E-04
        41   52            16.394402  1.50867725E-04  1.80451704E-04
         6   34      --------------- below threshold  9.19155228E-05
         6   22      --------------- below threshold  9.19155228E-05
        33   45      --------------- below threshold  5.20823648E-02
        33    7      --------------- below threshold  5.20823648E-02
        33    8            99.973611  1.51988029E-05  5.75948840E-02
        33   80      ---------------  9.73904275E-04 below threshold
        33   46            34.452144  8.83590242E-03  1.34800785E-02
        33    9            61.161170  6.44373058E-04  1.65909493E-03
        33   47            98.757120  1.47881741E-03  7.44032419E-04
        33   11      ---------------  2.90331185E-05 below threshold
        33   12            88.849727  6.01028657E-05  5.39025934E-04
        21   45      --------------- below threshold  5.20823648E-02
        21    7      --------------- below threshold  5.20823648E-02
        21    8            99.973611  1.51988029E-05  5.75948840E-02
        21   68      ---------------  9.73904275E-04 below threshold
        21   46            34.452144  8.83590242E-03  1.34800785E-02
        21    9            61.161170  6.44373058E-04  1.65909493E-03
        21   47            98.757120  1.47881741E-03  7.44032419E-04
        21   11      ---------------  2.90331185E-05 below threshold
        21   12            88.849727  6.01028657E-05  5.39025934E-04
        45   34            17.347034  7.92576280E-05  9.58920554E-05
        45   22            17.347034  7.92576280E-05  9.58920554E-05
        45   23            98.432571  1.03305959E-04  6.59079105E-03
        45   35            98.432571  1.03305959E-04  6.59079105E-03
        45   91            77.713229  1.11062251E-03  4.98332622E-03
         7   34            17.347034  7.92576280E-05  9.58920554E-05
         7   22            17.347034  7.92576280E-05  9.58920555E-05
         7   23            98.432571  1.03305959E-04  6.59079105E-03
         7   35            98.432571  1.03305959E-04  6.59079105E-03
         7   57            77.713229  1.11062251E-03  4.98332622E-03
         8   34      --------------- below threshold  3.69679514E-04
         8   22      --------------- below threshold  3.69679514E-04
        80   34            95.343834  1.86377759E-04  4.00281620E-03
        80   57            29.868531  8.42659628E-04  1.20154281E-03
        80   91            29.868531  8.42659628E-04  1.20154281E-03
        80   92            98.928288  3.58356288E-05  3.34377315E-03
        68   22            95.343834  1.86377759E-04  4.00281620E-03
        68   57            29.868531  8.42659628E-04  1.20154281E-03
        68   91            29.868531  8.42659628E-04  1.20154281E-03
        68   92            98.928288  3.58356288E-05  3.34377315E-03
        34   46            92.078467  1.25218753E-04  1.58073891E-03
        34    9            59.139188  1.55872437E-05  3.81471710E-05
        34   47            71.298995  3.69468332E-05  1.28730105E-04
        34   11            49.700277  1.60258473E-04  3.18607066E-04
        34   12            99.420910  3.21847869E-05  5.55781780E-03
        22   46            92.078467  1.25218753E-04  1.58073891E-03
        22    9            59.139188  1.55872437E-05  3.81471710E-05
        22   47            71.298996  3.69468332E-05  1.28730105E-04
        22   11            49.700277  1.60258473E-04  3.18607066E-04
        22   12            99.420910  3.21847869E-05  5.55781780E-03
        23   10          2527.725654  5.45375665E-04  2.07546653E-05
        23   11            98.453398  7.19207724E-05  4.65024340E-03
        35   10          2527.725656  5.45375665E-04  2.07546653E-05
        35   11            98.453398  7.19207724E-05  4.65024340E-03
        63   15            53.451431  1.23048249E-05  2.64343783E-05
        97   53            53.451431  1.23048249E-05  2.64343783E-05
        98   52            99.782854  2.27242655E-05  1.04649798E-02
        57   11            61.238221  4.36026187E-03  1.12488694E-02
        92   46            81.988285  4.17264502E-05  2.31662843E-04
        92   47      ---------------  6.95261217E-05 below threshold
     ---------------------------------------------------------------

 Number of problematic transitions =                   537

--

 Electric-dipole - electric-octupole not included
 Electric-dipole - magnetic-quadrupole not included


      ****************************************************************************************************
      *                                                                                                  *
      *                                    Special properties section                                    *
      *                                                                                                  *
      ****************************************************************************************************


++ I/O STATISTICS
 
  I. General I/O information
  - - - - - - - - - - - - - - - - - - - - - - - - - - - - - - - - - - - - - - - - - - -
  Unit  Name          Flsize      Write/Read            MBytes           Write/Read
                      (MBytes)       Calls              In/Out           Time, sec.
  - - - - - - - - - - - - - - - - - - - - - - - - - - - - - - - - - - - - - - - - - - -
   1  RUNFILE           0.99 .     266/  263189 .      2.5/   1903.9 .       0/       0
   2  ANNI              0.00 .       0/       0 .      0.0/      0.0 .       0/       0
   3  ONEINT            1.54 .       0/  126040 .      0.0/ 152831.4 .       0/      18
   4  JOBIPH            1.52 .       0/     651 .      0.0/      1.5 .       0/       0
   5  JOBIPH01          1.22 .       0/     219 .      0.0/      1.3 .       0/       0
   6  JOBIPH02          1.22 .       0/     219 .      0.0/      1.3 .       0/       0
   7  JOBIPH03          1.28 .       0/     315 .      0.0/      1.4 .       0/       0
   8  JOBIPH04          1.32 .       0/     363 .      0.0/      1.4 .       0/       0
   9  JOBIPH05          1.15 .       0/     123 .      0.0/      1.3 .       0/       0
  10  JOBIPH06          1.28 .       0/     315 .      0.0/      1.4 .       0/       0
  11  JOBIPH07          1.32 .       0/     363 .      0.0/      1.4 .       0/       0
  12  JOBIPH08          1.15 .       0/     123 .      0.0/      1.3 .       0/       0
  13  JOBIPH09          1.28 .       0/     315 .      0.0/      1.4 .       0/       0
  14  JOBIPH10          1.32 .       0/     363 .      0.0/      1.4 .       0/       0
  15  JOBIPH11          1.15 .       0/     123 .      0.0/      1.3 .       0/       0
  16  JOBIPH12          1.22 .       0/     219 .      0.0/      1.3 .       0/       0
  17  JOBIPH13          1.32 .       0/     363 .      0.0/      1.4 .       0/       0
  18  JOBIPH14          1.28 .       0/     315 .      0.0/      1.4 .       0/       0
  19  JOBIPH15          1.32 .       0/     363 .      0.0/      1.4 .       0/       0
  20  JOBIPH16          1.15 .       0/     123 .      0.0/      1.3 .       0/       0
  21  JOBIPH17          1.28 .       0/     315 .      0.0/      1.4 .       0/       0
  22  JOBIPH18          1.32 .       0/     363 .      0.0/      1.4 .       0/       0
  23  JOBIPH19          1.15 .       0/     123 .      0.0/      1.3 .       0/       0
  24  JOBIPH20          1.28 .       0/     315 .      0.0/      1.4 .       0/       0
  25  JOBIPH21          1.32 .       0/     363 .      0.0/      1.4 .       0/       0
  26  JOBIPH22          1.15 .       0/     123 .      0.0/      1.3 .       0/       0
  - - - - - - - - - - - - - - - - - - - - - - - - - - - - - - - - - - - - - - - - - - -
   *  TOTAL            31.50 .     266/  395706 .      2.5/ 154766.4 .       0/      19
  - - - - - - - - - - - - - - - - - - - - - - - - - - - - - - - - - - - - - - - - - - -
 
  II. I/O Access Patterns
  - - - - - - - - - - - - - - - - - - - -
  Unit  Name               % of random
                         Write/Read calls
  - - - - - - - - - - - - - - - - - - - -
   1  RUNFILE             28.6/  11.1
   2  ANNI                 0.0/   0.0
   3  ONEINT               0.0/  99.3
   4  JOBIPH               0.0/  51.9
   5  JOBIPH01             0.0/  55.7
   6  JOBIPH02             0.0/  55.7
   7  JOBIPH03             0.0/  54.0
   8  JOBIPH04             0.0/  53.4
   9  JOBIPH05             0.0/  60.2
  10  JOBIPH06             0.0/  54.0
  11  JOBIPH07             0.0/  53.4
  12  JOBIPH08             0.0/  60.2
  13  JOBIPH09             0.0/  54.0
  14  JOBIPH10             0.0/  53.4
  15  JOBIPH11             0.0/  60.2
  16  JOBIPH12             0.0/  55.7
  17  JOBIPH13             0.0/  53.4
  18  JOBIPH14             0.0/  54.0
  19  JOBIPH15             0.0/  53.4
  20  JOBIPH16             0.0/  60.2
  21  JOBIPH17             0.0/  54.0
  22  JOBIPH18             0.0/  53.4
  23  JOBIPH19             0.0/  60.2
  24  JOBIPH20             0.0/  54.0
  25  JOBIPH21             0.0/  53.4
  26  JOBIPH22             0.0/  60.2
  - - - - - - - - - - - - - - - - - - - -
--
--- Stop Module: rassi at Thu Apr 17 10:57:39 2025 /rc=_RC_ALL_IS_WELL_ ---
--- Module rassi spent 40 seconds ---

.##################.
.# Happy landing! #.
.##################.

    Timing: Wall=40.88 User=19.91 System=20.51
