   This run of MOLCAS is using the pymolcas driver

                             OPE
                             OPE          NMOL  CASOP  ENMOLC A   SO
                 OPE        NMOLC        AS  OP EN  MO LC     AS  OP
                OPENM       OL CA        SO  PE NM  OL CA     SOP EN
                OP EN      MO   LC       AS  OP ENMOL  CASO   PENMOL
                OP  EN     MO   LC       AS  OP EN     MO     LC ASO
               OP   E  NMOL  C  AS       OP  EN MO     LC     AS  OP
               OP  E   NMO   LC AS        OPEN  MO     LCASOP EN   M
               O  PEN   MO  LCA  SO
            OPE   NMO   L   CAS    OP
        OPENMOL  CASOP     ENMOL   CASOPE
     OPENMOLCA   SOPENMOLCASOPEN   MOLCASOPE
    OPENMOLCAS   OP           EN   MOL    CAS
    OPENMOLCAS       OP  ENM        O     LCA
    OPENMOLCAS    OPEN  MOLCASO     P  E  NMO
    OPENMOLCAS     OP               E  N  MOL
    OPENMOLCA   SO           PENM   O  L  CAS    OPEN    MO    LCAS
    OPENMOLCA   SOP           ENM   O  L  CAS   OP  EN  MOLC  AS   O
    OPENMOLCA   SOPE           NM      O  LCA   S      OP  EN MO
    OPENMOLC                AS         O  PEN   M      OL  CA  SOPE
    OPENMO        LCASOPE  NMOL        C  ASO   P      ENMOLC     AS
    OPE     NMO      LCA  SO     P     E   NM   OL  CA SO  PE N   MO
          OPENMOLCA            SOPE   NMO        LCAS  O    P  ENMO
     OPENMOLCASOPENMOLCASOPENMOLCASOPENMOLCA
        OPENMOLCASOPENMOLCASOPENMOLCASOPE
            OPENMOLCASOPENMOLCASOPENM
               OPENMOLCASOPENMOLCA        version: 25.02
                   OPENMOLCASO
                       OPE                tag: 92-gf4b470f0a

 OpenMolcas is free software; you can redistribute it and/or modify it
 under the terms of the GNU Lesser General Public License version 2.1.
 OpenMolcas is distributed in the hope that it will be useful, but it
 is provided "as is" and without any express or implied warranties.
 For more details see the full text of the license in the file
 LICENSE or in <http://www.gnu.org/licenses/>.

                 Copyright (C) The OpenMolcas Authors
           For the author list and the recommended citation,
                   consult the file CONTRIBUTORS.md

           *************************************************
           * pymolcas version py2.29                       *
           *   build 2ba4516c4d154a59cba941070ba63e2c      *
           *   (after the EMIL interpreter by V. Veryazov) *
           *************************************************

configuration info
------------------
Host name: iftia91.univ.gda.pl (Linux)
C Compiler ID: GNU
C flags: -std=gnu99
Fortran Compiler ID: GNU
Fortran flags: -cpp -fdefault-integer-8 -fmax-stack-var-size=1048576
Definitions: _MOLCAS_;_I8_;_LINUX_
Parallel: OFF (GA=OFF)


   --------------------------------------------------------------------
  |
  |           Project: O2
  |    Submitted from: /scratch/tecumseh/WorkSpace/O2.1.2000
  |      Scratch area: /scratch/tecumseh/WorkSpace/O2.1.2000
  |   Save outputs to: WORKDIR
  |            Molcas: /home/tecumseh/program/OpenMolcas/build
  |
  | Scratch area is NOT empty
  |
  |    MOLCAS_DRIVER = /home/tecumseh/program/OpenMolcas/build/pymolcas
  |    MOLCAS_NPROCS = 1
  |    MOLCAS_SOURCE = /home/tecumseh/program/OpenMolcas/OpenMolcas
  | MOLCAS_STRUCTURE = 0
  |
   --------------------------------------------------------------------

++ ---------   Input file   ---------

>>> COPY $dir/vectors/$Project.$R.1Ag-12S.JobIph $WorkDir/JOBIPH

>>> COPY $dir/vectors/$Project.$R.3Ag-3S.JobIph $WorkDir/JOBIPH01

>>> COPY $dir/vectors/$Project.$R.5Ag-3S.JobIph $WorkDir/JOBIPH02

>>> COPY $dir/vectors/$Project.$R.1B3u-5S.JobIph $WorkDir/JOBIPH03

>>> COPY $dir/vectors/$Project.$R.3B3u-6S.JobIph $WorkDir/JOBIPH04

>>> COPY $dir/vectors/$Project.$R.5B3u-1S.JobIph $WorkDir/JOBIPH05

>>> COPY $dir/vectors/$Project.$R.1B2u-5S.JobIph $WorkDir/JOBIPH06

>>> COPY $dir/vectors/$Project.$R.3B2u-6S.JobIph $WorkDir/JOBIPH07

>>> COPY $dir/vectors/$Project.$R.5B2u-1S.JobIph $WorkDir/JOBIPH08

>>> COPY $dir/vectors/$Project.$R.1B1g-5S.JobIph $WorkDir/JOBIPH09

>>> COPY $dir/vectors/$Project.$R.3B1g-6S.JobIph $WorkDir/JOBIPH10

>>> COPY $dir/vectors/$Project.$R.5B1g-1S.JobIph $WorkDir/JOBIPH11

>>> COPY $dir/vectors/$Project.$R.1B1u-3S.JobIph $WorkDir/JOBIPH12

>>> COPY $dir/vectors/$Project.$R.3B1u-6S.JobIph $WorkDir/JOBIPH13

>>> COPY $dir/vectors/$Project.$R.1B2g-5S.JobIph $WorkDir/JOBIPH14

>>> COPY $dir/vectors/$Project.$R.3B2g-6S.JobIph $WorkDir/JOBIPH15

>>> COPY $dir/vectors/$Project.$R.5B2g-1S.JobIph $WorkDir/JOBIPH16

>>> COPY $dir/vectors/$Project.$R.1B3g-5S.JobIph $WorkDir/JOBIPH17

>>> COPY $dir/vectors/$Project.$R.3B3g-6S.JobIph $WorkDir/JOBIPH18

>>> COPY $dir/vectors/$Project.$R.5B3g-1S.JobIph $WorkDir/JOBIPH19

>>> COPY $dir/vectors/$Project.$R.1Au-5S.JobIph $WorkDir/JOBIPH20

>>> COPY $dir/vectors/$Project.$R.3Au-6S.JobIph $WorkDir/JOBIPH21

>>> COPY $dir/vectors/$Project.$R.5Au-1S.JobIph $WorkDir/JOBIPH22

&RASSI

OMEGa
NROF=23 12 3 3 5 6 1 5 6 1 5 6 1 3 6 5 6 1 5 6 1 5 6 1
1 2 3 4 5 6 7 8 9 10 11 12
1 2 3
1 2 3
1 2 3 4 5
1 2 3 4 5 6
1
1 2 3 4 5
1 2 3 4 5 6
1
1 2 3 4 5
1 2 3 4 5 6
1
1 2 3
1 2 3 4 5 6
1 2 3 4 5
1 2 3 4 5 6
1
1 2 3 4 5
1 2 3 4 5 6
1
1 2 3 4 5
1 2 3 4 5 6
1
EJOB

-- ----------------------------------

>>> COPY /home/tecumseh/project/molecule/O2/OpenMolcas/vectors/O2.1.2000.1Ag-12S.JobIph /scratch/tecumseh/WorkSpace/O2.1.2000/JOBIPH

>>> COPY /home/tecumseh/project/molecule/O2/OpenMolcas/vectors/O2.1.2000.3Ag-3S.JobIph /scratch/tecumseh/WorkSpace/O2.1.2000/JOBIPH01

>>> COPY /home/tecumseh/project/molecule/O2/OpenMolcas/vectors/O2.1.2000.5Ag-3S.JobIph /scratch/tecumseh/WorkSpace/O2.1.2000/JOBIPH02

>>> COPY /home/tecumseh/project/molecule/O2/OpenMolcas/vectors/O2.1.2000.1B3u-5S.JobIph /scratch/tecumseh/WorkSpace/O2.1.2000/JOBIPH03

>>> COPY /home/tecumseh/project/molecule/O2/OpenMolcas/vectors/O2.1.2000.3B3u-6S.JobIph /scratch/tecumseh/WorkSpace/O2.1.2000/JOBIPH04

>>> COPY /home/tecumseh/project/molecule/O2/OpenMolcas/vectors/O2.1.2000.5B3u-1S.JobIph /scratch/tecumseh/WorkSpace/O2.1.2000/JOBIPH05

>>> COPY /home/tecumseh/project/molecule/O2/OpenMolcas/vectors/O2.1.2000.1B2u-5S.JobIph /scratch/tecumseh/WorkSpace/O2.1.2000/JOBIPH06

>>> COPY /home/tecumseh/project/molecule/O2/OpenMolcas/vectors/O2.1.2000.3B2u-6S.JobIph /scratch/tecumseh/WorkSpace/O2.1.2000/JOBIPH07

>>> COPY /home/tecumseh/project/molecule/O2/OpenMolcas/vectors/O2.1.2000.5B2u-1S.JobIph /scratch/tecumseh/WorkSpace/O2.1.2000/JOBIPH08

>>> COPY /home/tecumseh/project/molecule/O2/OpenMolcas/vectors/O2.1.2000.1B1g-5S.JobIph /scratch/tecumseh/WorkSpace/O2.1.2000/JOBIPH09

>>> COPY /home/tecumseh/project/molecule/O2/OpenMolcas/vectors/O2.1.2000.3B1g-6S.JobIph /scratch/tecumseh/WorkSpace/O2.1.2000/JOBIPH10

>>> COPY /home/tecumseh/project/molecule/O2/OpenMolcas/vectors/O2.1.2000.5B1g-1S.JobIph /scratch/tecumseh/WorkSpace/O2.1.2000/JOBIPH11

>>> COPY /home/tecumseh/project/molecule/O2/OpenMolcas/vectors/O2.1.2000.1B1u-3S.JobIph /scratch/tecumseh/WorkSpace/O2.1.2000/JOBIPH12

>>> COPY /home/tecumseh/project/molecule/O2/OpenMolcas/vectors/O2.1.2000.3B1u-6S.JobIph /scratch/tecumseh/WorkSpace/O2.1.2000/JOBIPH13

>>> COPY /home/tecumseh/project/molecule/O2/OpenMolcas/vectors/O2.1.2000.1B2g-5S.JobIph /scratch/tecumseh/WorkSpace/O2.1.2000/JOBIPH14

>>> COPY /home/tecumseh/project/molecule/O2/OpenMolcas/vectors/O2.1.2000.3B2g-6S.JobIph /scratch/tecumseh/WorkSpace/O2.1.2000/JOBIPH15

>>> COPY /home/tecumseh/project/molecule/O2/OpenMolcas/vectors/O2.1.2000.5B2g-1S.JobIph /scratch/tecumseh/WorkSpace/O2.1.2000/JOBIPH16

>>> COPY /home/tecumseh/project/molecule/O2/OpenMolcas/vectors/O2.1.2000.1B3g-5S.JobIph /scratch/tecumseh/WorkSpace/O2.1.2000/JOBIPH17

>>> COPY /home/tecumseh/project/molecule/O2/OpenMolcas/vectors/O2.1.2000.3B3g-6S.JobIph /scratch/tecumseh/WorkSpace/O2.1.2000/JOBIPH18

>>> COPY /home/tecumseh/project/molecule/O2/OpenMolcas/vectors/O2.1.2000.5B3g-1S.JobIph /scratch/tecumseh/WorkSpace/O2.1.2000/JOBIPH19

>>> COPY /home/tecumseh/project/molecule/O2/OpenMolcas/vectors/O2.1.2000.1Au-5S.JobIph /scratch/tecumseh/WorkSpace/O2.1.2000/JOBIPH20

>>> COPY /home/tecumseh/project/molecule/O2/OpenMolcas/vectors/O2.1.2000.3Au-6S.JobIph /scratch/tecumseh/WorkSpace/O2.1.2000/JOBIPH21

>>> COPY /home/tecumseh/project/molecule/O2/OpenMolcas/vectors/O2.1.2000.5Au-1S.JobIph /scratch/tecumseh/WorkSpace/O2.1.2000/JOBIPH22

--- Start Module: rassi at Thu Apr 17 11:02:54 2025 ---

()()()()()()()()()()()()()()()()()()()()()()()()()()()()()()()()()()()()()()()()()()()()()()()()()()

                                               &RASSI

                                   only a single process is used
                       available to each process: 2.0 GB of memory, 1 thread?
                                            pid: 298957
()()()()()()()()()()()()()()()()()()()()()()()()()()()()()()()()()()()()()()()()()()()()()()()()()()


      ********************************************************************************
      *                                                                              *
      *                             General data section                             *
      *                                                                              *
      ********************************************************************************

   Specific data for JOBIPH file JOBIPH
   -------------------------------------

   Header from SEWARD:
                            O2, D2h symmetry, aug-cc-pVTZ                      
        Integrals generated by Gateway/Seward, Wed Apr 16 15:47:49 2025        

   CASSCF title (first line only):
       O2, 1Ag 12S                                                             

  STATE IRREP:                1
  SPIN MULTIPLICITY:          1
  ACTIVE ELECTRONS:          12
  MAX RAS1 HOLES:             0
  MAX RAS3 ELECTRONS:         0
  NR OF CONFIG:              60

   Specific data for JOBIPH file JOBIPH01
   -------------------------------------

   Header from SEWARD:
                            O2, D2h symmetry, aug-cc-pVTZ                      
        Integrals generated by Gateway/Seward, Wed Apr 16 15:47:49 2025        

   CASSCF title (first line only):
       O2, 3Ag  3S                                                             

  STATE IRREP:                1
  SPIN MULTIPLICITY:          3
  ACTIVE ELECTRONS:          12
  MAX RAS1 HOLES:             0
  MAX RAS3 ELECTRONS:         0
  NR OF CONFIG:              42

   Specific data for JOBIPH file JOBIPH02
   -------------------------------------

   Header from SEWARD:
                            O2, D2h symmetry, aug-cc-pVTZ                      
        Integrals generated by Gateway/Seward, Wed Apr 16 15:47:49 2025        

   CASSCF title (first line only):
       O2, 5Ag  3S                                                             

  STATE IRREP:                1
  SPIN MULTIPLICITY:          5
  ACTIVE ELECTRONS:          12
  MAX RAS1 HOLES:             0
  MAX RAS3 ELECTRONS:         0
  NR OF CONFIG:              10

   Specific data for JOBIPH file JOBIPH03
   -------------------------------------

   Header from SEWARD:
                            O2, D2h symmetry, aug-cc-pVTZ                      
        Integrals generated by Gateway/Seward, Thu Apr 17 11:02:45 2025        

   CASSCF title (first line only):
       O2, 1B3u 5S                                                             

  STATE IRREP:                2
  SPIN MULTIPLICITY:          1
  ACTIVE ELECTRONS:          12
  MAX RAS1 HOLES:             0
  MAX RAS3 ELECTRONS:         0
  NR OF CONFIG:              40

   Specific data for JOBIPH file JOBIPH04
   -------------------------------------

   Header from SEWARD:
                            O2, D2h symmetry, aug-cc-pVTZ                      
        Integrals generated by Gateway/Seward, Wed Apr 16 15:47:49 2025        

   CASSCF title (first line only):
       O2, 3B3u 6S                                                             

  STATE IRREP:                2
  SPIN MULTIPLICITY:          3
  ACTIVE ELECTRONS:          12
  MAX RAS1 HOLES:             0
  MAX RAS3 ELECTRONS:         0
  NR OF CONFIG:              48

   Specific data for JOBIPH file JOBIPH05
   -------------------------------------

   Header from SEWARD:
                            O2, D2h symmetry, aug-cc-pVTZ                      
        Integrals generated by Gateway/Seward, Wed Apr 16 15:47:49 2025        

   CASSCF title (first line only):
       O2, 5B3u 1S                                                             

  STATE IRREP:                2
  SPIN MULTIPLICITY:          5
  ACTIVE ELECTRONS:          12
  MAX RAS1 HOLES:             0
  MAX RAS3 ELECTRONS:         0
  NR OF CONFIG:               8

   Specific data for JOBIPH file JOBIPH06
   -------------------------------------

   Header from SEWARD:
                            O2, D2h symmetry, aug-cc-pVTZ                      
        Integrals generated by Gateway/Seward, Thu Apr 17 11:02:45 2025        

   CASSCF title (first line only):
       O2, 1B2u 5S                                                             

  STATE IRREP:                3
  SPIN MULTIPLICITY:          1
  ACTIVE ELECTRONS:          12
  MAX RAS1 HOLES:             0
  MAX RAS3 ELECTRONS:         0
  NR OF CONFIG:              40

   Specific data for JOBIPH file JOBIPH07
   -------------------------------------

   Header from SEWARD:
                            O2, D2h symmetry, aug-cc-pVTZ                      
        Integrals generated by Gateway/Seward, Wed Apr 16 15:47:49 2025        

   CASSCF title (first line only):
       O2, 3B2u 6S                                                             

  STATE IRREP:                3
  SPIN MULTIPLICITY:          3
  ACTIVE ELECTRONS:          12
  MAX RAS1 HOLES:             0
  MAX RAS3 ELECTRONS:         0
  NR OF CONFIG:              48

   Specific data for JOBIPH file JOBIPH08
   -------------------------------------

   Header from SEWARD:
                            O2, D2h symmetry, aug-cc-pVTZ                      
        Integrals generated by Gateway/Seward, Wed Apr 16 15:47:49 2025        

   CASSCF title (first line only):
       O2, 5B2u 1S                                                             

  STATE IRREP:                3
  SPIN MULTIPLICITY:          5
  ACTIVE ELECTRONS:          12
  MAX RAS1 HOLES:             0
  MAX RAS3 ELECTRONS:         0
  NR OF CONFIG:               8

   Specific data for JOBIPH file JOBIPH09
   -------------------------------------

   Header from SEWARD:
                            O2, D2h symmetry, aug-cc-pVTZ                      
        Integrals generated by Gateway/Seward, Wed Apr 16 15:47:49 2025        

   CASSCF title (first line only):
       O2, 1B1g 5S                                                             

  STATE IRREP:                4
  SPIN MULTIPLICITY:          1
  ACTIVE ELECTRONS:          12
  MAX RAS1 HOLES:             0
  MAX RAS3 ELECTRONS:         0
  NR OF CONFIG:              36

   Specific data for JOBIPH file JOBIPH10
   -------------------------------------

   Header from SEWARD:
                            O2, D2h symmetry, aug-cc-pVTZ                      
        Integrals generated by Gateway/Seward, Wed Apr 16 15:47:49 2025        

   CASSCF title (first line only):
       O2, 3B1g 6S                                                             

  STATE IRREP:                4
  SPIN MULTIPLICITY:          3
  ACTIVE ELECTRONS:          12
  MAX RAS1 HOLES:             0
  MAX RAS3 ELECTRONS:         0
  NR OF CONFIG:              48

   Specific data for JOBIPH file JOBIPH11
   -------------------------------------

   Header from SEWARD:
                            O2, D2h symmetry, aug-cc-pVTZ                      
        Integrals generated by Gateway/Seward, Wed Apr 16 15:47:49 2025        

   CASSCF title (first line only):
       O2, 5B1g 1S                                                             

  STATE IRREP:                4
  SPIN MULTIPLICITY:          5
  ACTIVE ELECTRONS:          12
  MAX RAS1 HOLES:             0
  MAX RAS3 ELECTRONS:         0
  NR OF CONFIG:              12

   Specific data for JOBIPH file JOBIPH12
   -------------------------------------

   Header from SEWARD:
                            O2, D2h symmetry, aug-cc-pVTZ                      
        Integrals generated by Gateway/Seward, Thu Apr 17 11:02:45 2025        

   CASSCF title (first line only):
       O2, 1B1u 3S                                                             

  STATE IRREP:                5
  SPIN MULTIPLICITY:          1
  ACTIVE ELECTRONS:          12
  MAX RAS1 HOLES:             0
  MAX RAS3 ELECTRONS:         0
  NR OF CONFIG:              44

   Specific data for JOBIPH file JOBIPH13
   -------------------------------------

   Header from SEWARD:
                            O2, D2h symmetry, aug-cc-pVTZ                      
        Integrals generated by Gateway/Seward, Wed Apr 16 15:47:49 2025        

   CASSCF title (first line only):
       O2, 3B1u 6S                                                             

  STATE IRREP:                5
  SPIN MULTIPLICITY:          3
  ACTIVE ELECTRONS:          12
  MAX RAS1 HOLES:             0
  MAX RAS3 ELECTRONS:         0
  NR OF CONFIG:              48

   Specific data for JOBIPH file JOBIPH14
   -------------------------------------

   Header from SEWARD:
                            O2, D2h symmetry, aug-cc-pVTZ                      
        Integrals generated by Gateway/Seward, Wed Apr 16 15:47:49 2025        

   CASSCF title (first line only):
       O2, 1B2g 5S                                                             

  STATE IRREP:                6
  SPIN MULTIPLICITY:          1
  ACTIVE ELECTRONS:          12
  MAX RAS1 HOLES:             0
  MAX RAS3 ELECTRONS:         0
  NR OF CONFIG:              40

   Specific data for JOBIPH file JOBIPH15
   -------------------------------------

   Header from SEWARD:
                            O2, D2h symmetry, aug-cc-pVTZ                      
        Integrals generated by Gateway/Seward, Wed Apr 16 15:47:49 2025        

   CASSCF title (first line only):
       O2, 3B2g 6S                                                             

  STATE IRREP:                6
  SPIN MULTIPLICITY:          3
  ACTIVE ELECTRONS:          12
  MAX RAS1 HOLES:             0
  MAX RAS3 ELECTRONS:         0
  NR OF CONFIG:              48

   Specific data for JOBIPH file JOBIPH16
   -------------------------------------

   Header from SEWARD:
                            O2, D2h symmetry, aug-cc-pVTZ                      
        Integrals generated by Gateway/Seward, Wed Apr 16 15:47:49 2025        

   CASSCF title (first line only):
       O2, 5B2g 1S                                                             

  STATE IRREP:                6
  SPIN MULTIPLICITY:          5
  ACTIVE ELECTRONS:          12
  MAX RAS1 HOLES:             0
  MAX RAS3 ELECTRONS:         0
  NR OF CONFIG:               8

   Specific data for JOBIPH file JOBIPH17
   -------------------------------------

   Header from SEWARD:
                            O2, D2h symmetry, aug-cc-pVTZ                      
        Integrals generated by Gateway/Seward, Wed Apr 16 15:47:49 2025        

   CASSCF title (first line only):
       O2, 1B3g 5S                                                             

  STATE IRREP:                7
  SPIN MULTIPLICITY:          1
  ACTIVE ELECTRONS:          12
  MAX RAS1 HOLES:             0
  MAX RAS3 ELECTRONS:         0
  NR OF CONFIG:              40

   Specific data for JOBIPH file JOBIPH18
   -------------------------------------

   Header from SEWARD:
                            O2, D2h symmetry, aug-cc-pVTZ                      
        Integrals generated by Gateway/Seward, Wed Apr 16 15:47:49 2025        

   CASSCF title (first line only):
       O2, 3B3g 6S                                                             

  STATE IRREP:                7
  SPIN MULTIPLICITY:          3
  ACTIVE ELECTRONS:          12
  MAX RAS1 HOLES:             0
  MAX RAS3 ELECTRONS:         0
  NR OF CONFIG:              48

   Specific data for JOBIPH file JOBIPH19
   -------------------------------------

   Header from SEWARD:
                            O2, D2h symmetry, aug-cc-pVTZ                      
        Integrals generated by Gateway/Seward, Wed Apr 16 15:47:49 2025        

   CASSCF title (first line only):
       O2, 5B3g 1S                                                             

  STATE IRREP:                7
  SPIN MULTIPLICITY:          5
  ACTIVE ELECTRONS:          12
  MAX RAS1 HOLES:             0
  MAX RAS3 ELECTRONS:         0
  NR OF CONFIG:               8

   Specific data for JOBIPH file JOBIPH20
   -------------------------------------

   Header from SEWARD:
                            O2, D2h symmetry, aug-cc-pVTZ                      
        Integrals generated by Gateway/Seward, Thu Apr 17 11:02:45 2025        

   CASSCF title (first line only):
       O2, 1Au 5S                                                              

  STATE IRREP:                8
  SPIN MULTIPLICITY:          1
  ACTIVE ELECTRONS:          12
  MAX RAS1 HOLES:             0
  MAX RAS3 ELECTRONS:         0
  NR OF CONFIG:              36

   Specific data for JOBIPH file JOBIPH21
   -------------------------------------

   Header from SEWARD:
                            O2, D2h symmetry, aug-cc-pVTZ                      
        Integrals generated by Gateway/Seward, Wed Apr 16 15:47:49 2025        

   CASSCF title (first line only):
       O2, 3Au 6S                                                              

  STATE IRREP:                8
  SPIN MULTIPLICITY:          3
  ACTIVE ELECTRONS:          12
  MAX RAS1 HOLES:             0
  MAX RAS3 ELECTRONS:         0
  NR OF CONFIG:              48

   Specific data for JOBIPH file JOBIPH22
   -------------------------------------

   Header from SEWARD:
                            O2, D2h symmetry, aug-cc-pVTZ                      
        Integrals generated by Gateway/Seward, Wed Apr 16 15:47:49 2025        

   CASSCF title (first line only):
       O2, 5Au 1S                                                              

  STATE IRREP:                8
  SPIN MULTIPLICITY:          5
  ACTIVE ELECTRONS:          12
  MAX RAS1 HOLES:             0
  MAX RAS3 ELECTRONS:         0
  NR OF CONFIG:              12
 ###############################################################################
 ###############################################################################
 ###                                                                         ###
 ###                                                                         ###
 ###    WARNING: EJOB used when HEFF is available, possible                  ###
 ###    extra interaction between states is ignored!                         ###
 ###                                                                         ###
 ###                                                                         ###
 ###############################################################################
 ###############################################################################

   The following data are common to all the states:
   ------------------------------------------------
   (note: frozen counts as inactive, deleted as secondary)

      Nr of irreps: 8

                 Total     No./Irrep 
      Irrep                  1   2   3   4   5   6   7   8
                            ag b3u b2u b1g b1u b2g b3g  au

      INACTIVE       2       1   0   0   0   1   0   0   0
      ACTIVE         8       2   1   1   0   2   1   1   0
      SECONDARY     82      16  10  10   5  16  10  10   5
      BASIS         92      19  11  11   5  19  11  11   5

      RAS1           0       0   0   0   0   0   0   0   0
      RAS2           8       2   1   1   0   2   1   1   0
      RAS3           0       0   0   0   0   0   0   0   0

        MATRIX ELEMENTS WILL BE COMPUTED FOR THE FOLLOWING ONE-ELECTRON OPERATORS, UNLESS ZERO BY SYMMETRY.
   (Herm=Hermitian, Anti=Antihermitian, Sing=Singlet operator, Trip=Triplet operator)
     MLTPL  0   1 (HERMSING)     MLTPL  1   1 (HERMSING)     MLTPL  1   2 (HERMSING)
     MLTPL  1   3 (HERMSING)     MLTPL  2   1 (HERMSING)     MLTPL  2   2 (HERMSING)
     MLTPL  2   3 (HERMSING)     MLTPL  2   4 (HERMSING)     MLTPL  2   5 (HERMSING)
     MLTPL  2   6 (HERMSING)     VELOCITY   1 (ANTISING)     VELOCITY   2 (ANTISING)
     VELOCITY   3 (ANTISING)     ANGMOM     1 (ANTISING)     ANGMOM     2 (ANTISING)
     ANGMOM     3 (ANTISING)     MLTPV  2   1 (ANTISING)     MLTPV  2   2 (ANTISING)
     MLTPV  2   3 (ANTISING)     MLTPV  2   4 (ANTISING)     MLTPV  2   5 (ANTISING)
     MLTPV  2   6 (ANTISING)

       EIGENSTATES OF A SPIN-FREE HAMILTONIAN WILL BE COMPUTED BASED ON:

  a Hamiltonian matrix assumed to be diagonal with energies read from the wavefunction file(s).

  Nr of states:                   99

   State:        1   2   3   4   5   6   7   8   9  10  11  12  13  14  15  16  17  18  19  20
  JobIph:        1   1   1   1   1   1   1   1   1   1   1   1   2   2   2   3   3   3   4   4
 Root nr:        1   2   3   4   5   6   7   8   9  10  11  12   1   2   3   1   2   3   1   2

   State:       21  22  23  24  25  26  27  28  29  30  31  32  33  34  35  36  37  38  39  40
  JobIph:        4   4   4   5   5   5   5   5   5   6   7   7   7   7   7   8   8   8   8   8
 Root nr:        3   4   5   1   2   3   4   5   6   1   1   2   3   4   5   1   2   3   4   5

   State:       41  42  43  44  45  46  47  48  49  50  51  52  53  54  55  56  57  58  59  60
  JobIph:        8   9  10  10  10  10  10  11  11  11  11  11  11  12  13  13  13  14  14  14
 Root nr:        6   1   1   2   3   4   5   1   2   3   4   5   6   1   1   2   3   1   2   3

   State:       61  62  63  64  65  66  67  68  69  70  71  72  73  74  75  76  77  78  79  80
  JobIph:       14  14  14  15  15  15  15  15  16  16  16  16  16  16  17  18  18  18  18  18
 Root nr:        4   5   6   1   2   3   4   5   1   2   3   4   5   6   1   1   2   3   4   5

   State:       81  82  83  84  85  86  87  88  89  90  91  92  93  94  95  96  97  98  99
  JobIph:       19  19  19  19  19  19  20  21  21  21  21  21  22  22  22  22  22  22  23
 Root nr:        1   2   3   4   5   6   1   1   2   3   4   5   1   2   3   4   5   6   1

  HAMILTONIAN MATRIX FOR THE ORIGINAL STATES:

  Diagonal, with energies
   -149.61012223   -149.60958384   -149.58282494   -149.44610004   -149.44484354
   -149.44091070   -149.43818105   -149.42367911   -149.42270262   -149.37053789
   -149.36299949   -149.30364147   -149.51946622   -149.51897137   -149.50229586
   -149.60161445   -149.60123825   -149.58192104   -149.59660354   -149.44152158
   -149.43738866   -149.43288647   -149.37060838   -149.59843020   -149.52345089
   -149.52013341   -149.51597041   -149.51362605   -149.45375353   -149.59525918
   -149.59660354   -149.44152158   -149.43738866   -149.43288647   -149.37060838
   -149.59843020   -149.52345089   -149.52013341   -149.51597041   -149.51362605
   -149.45375353   -149.59525918   -149.61012223   -149.44610004   -149.43818105
   -149.42270262   -149.36299949   -149.60842808   -149.52981678   -149.51950966
   -149.51946622   -149.50229586   -149.44343419   -149.60161445   -149.44291422
   -149.38335468   -149.36559008   -149.60748536   -149.60703094   -149.58252133
   -149.52671083   -149.52609345   -149.50308657   -149.59658732   -149.44615364
   -149.44057684   -149.43733084   -149.37751291   -149.59616008   -149.52615725
   -149.52072805   -149.51971946   -149.51545750   -149.45626991   -149.60161485
   -149.59658732   -149.44615364   -149.44057684   -149.43733084   -149.37751291
   -149.59616008   -149.52615725   -149.52072805   -149.51971946   -149.51545750
   -149.45626991   -149.60161485   -149.61016342   -149.44334556   -149.44291422
   -149.42366524   -149.36559008   -149.60748536   -149.52671083   -149.52348491
   -149.52010558   -149.50308657   -149.44433058   -149.60330273

      OVERLAP MATRIX FOR THE ORIGINAL STATES:

  Diagonal, with elements
      1.00000000      1.00000000      1.00000000      1.00000000      1.00000000
      1.00000000      1.00000000      1.00000000      1.00000000      1.00000000
      1.00000000      1.00000000      1.00000000      1.00000000      1.00000000
      1.00000000      1.00000000      1.00000000      1.00000000      1.00000000
      1.00000000      1.00000000      1.00000000      1.00000000      1.00000000
      1.00000000      1.00000000      1.00000000      1.00000000      1.00000000
      1.00000000      1.00000000      1.00000000      1.00000000      1.00000000
      1.00000000      1.00000000      1.00000000      1.00000000      1.00000000
      1.00000000      1.00000000      1.00000000      1.00000000      1.00000000
      1.00000000      1.00000000      1.00000000      1.00000000      1.00000000
      1.00000000      1.00000000      1.00000000      1.00000000      1.00000000
      1.00000000      1.00000000      1.00000000      1.00000000      1.00000000
      1.00000000      1.00000000      1.00000000      1.00000000      1.00000000
      1.00000000      1.00000000      1.00000000      1.00000000      1.00000000
      1.00000000      1.00000000      1.00000000      1.00000000      1.00000000
      1.00000000      1.00000000      1.00000000      1.00000000      1.00000000
      1.00000000      1.00000000      1.00000000      1.00000000      1.00000000
      1.00000000      1.00000000      1.00000000      1.00000000      1.00000000
      1.00000000      1.00000000      1.00000000      1.00000000      1.00000000
      1.00000000      1.00000000      1.00000000      1.00000000

::    RASSI State    1     Total energy:    -149.61012222756017
::    RASSI State    2     Total energy:    -149.60958383512926
::    RASSI State    3     Total energy:    -149.58282493884229
::    RASSI State    4     Total energy:    -149.44610004031657
::    RASSI State    5     Total energy:    -149.44484353869365
::    RASSI State    6     Total energy:    -149.44091070224627
::    RASSI State    7     Total energy:    -149.43818105314963
::    RASSI State    8     Total energy:    -149.42367910726139
::    RASSI State    9     Total energy:    -149.42270261733279
::    RASSI State   10     Total energy:    -149.37053788833390
::    RASSI State   11     Total energy:    -149.36299948966027
::    RASSI State   12     Total energy:    -149.30364147334629
::    RASSI State   13     Total energy:    -149.51946621631032
::    RASSI State   14     Total energy:    -149.51897137455580
::    RASSI State   15     Total energy:    -149.50229586012966
::    RASSI State   16     Total energy:    -149.60161444930566
::    RASSI State   17     Total energy:    -149.60123825012215
::    RASSI State   18     Total energy:    -149.58192104201581
::    RASSI State   19     Total energy:    -149.59660354075064
::    RASSI State   20     Total energy:    -149.44152157555084
::    RASSI State   21     Total energy:    -149.43738866280557
::    RASSI State   22     Total energy:    -149.43288647466122
::    RASSI State   23     Total energy:    -149.37060838379745
::    RASSI State   24     Total energy:    -149.59843019868146
::    RASSI State   25     Total energy:    -149.52345089447954
::    RASSI State   26     Total energy:    -149.52013340667418
::    RASSI State   27     Total energy:    -149.51597041138297
::    RASSI State   28     Total energy:    -149.51362605465116
::    RASSI State   29     Total energy:    -149.45375352860867
::    RASSI State   30     Total energy:    -149.59525917506218
::    RASSI State   31     Total energy:    -149.59660354075064
::    RASSI State   32     Total energy:    -149.44152157555084
::    RASSI State   33     Total energy:    -149.43738866280563
::    RASSI State   34     Total energy:    -149.43288647466122
::    RASSI State   35     Total energy:    -149.37060838379742
::    RASSI State   36     Total energy:    -149.59843019868143
::    RASSI State   37     Total energy:    -149.52345089447951
::    RASSI State   38     Total energy:    -149.52013340667420
::    RASSI State   39     Total energy:    -149.51597041138268
::    RASSI State   40     Total energy:    -149.51362605465116
::    RASSI State   41     Total energy:    -149.45375352860873
::    RASSI State   42     Total energy:    -149.59525917506215
::    RASSI State   43     Total energy:    -149.61012222756023
::    RASSI State   44     Total energy:    -149.44610004031659
::    RASSI State   45     Total energy:    -149.43818105314955
::    RASSI State   46     Total energy:    -149.42270261733282
::    RASSI State   47     Total energy:    -149.36299948966047
::    RASSI State   48     Total energy:    -149.60842807607639
::    RASSI State   49     Total energy:    -149.52981678389099
::    RASSI State   50     Total energy:    -149.51950966316758
::    RASSI State   51     Total energy:    -149.51946621631021
::    RASSI State   52     Total energy:    -149.50229586012964
::    RASSI State   53     Total energy:    -149.44343419293551
::    RASSI State   54     Total energy:    -149.60161444930574
::    RASSI State   55     Total energy:    -149.44291421973082
::    RASSI State   56     Total energy:    -149.38335468084534
::    RASSI State   57     Total energy:    -149.36559007654733
::    RASSI State   58     Total energy:    -149.60748536493983
::    RASSI State   59     Total energy:    -149.60703094171905
::    RASSI State   60     Total energy:    -149.58252133346562
::    RASSI State   61     Total energy:    -149.52671083094717
::    RASSI State   62     Total energy:    -149.52609345231528
::    RASSI State   63     Total energy:    -149.50308657044741
::    RASSI State   64     Total energy:    -149.59658732217491
::    RASSI State   65     Total energy:    -149.44615364409782
::    RASSI State   66     Total energy:    -149.44057684076216
::    RASSI State   67     Total energy:    -149.43733084216814
::    RASSI State   68     Total energy:    -149.37751291097680
::    RASSI State   69     Total energy:    -149.59616007692321
::    RASSI State   70     Total energy:    -149.52615725376259
::    RASSI State   71     Total energy:    -149.52072804680975
::    RASSI State   72     Total energy:    -149.51971946388636
::    RASSI State   73     Total energy:    -149.51545749739995
::    RASSI State   74     Total energy:    -149.45626991092863
::    RASSI State   75     Total energy:    -149.60161484639769
::    RASSI State   76     Total energy:    -149.59658732217491
::    RASSI State   77     Total energy:    -149.44615364409779
::    RASSI State   78     Total energy:    -149.44057684076216
::    RASSI State   79     Total energy:    -149.43733084216811
::    RASSI State   80     Total energy:    -149.37751291097686
::    RASSI State   81     Total energy:    -149.59616007692324
::    RASSI State   82     Total energy:    -149.52615725376262
::    RASSI State   83     Total energy:    -149.52072804680961
::    RASSI State   84     Total energy:    -149.51971946388613
::    RASSI State   85     Total energy:    -149.51545749739989
::    RASSI State   86     Total energy:    -149.45626991092860
::    RASSI State   87     Total energy:    -149.60161484639772
::    RASSI State   88     Total energy:    -149.61016342032852
::    RASSI State   89     Total energy:    -149.44334556249768
::    RASSI State   90     Total energy:    -149.44291421973091
::    RASSI State   91     Total energy:    -149.42366524390428
::    RASSI State   92     Total energy:    -149.36559007654733
::    RASSI State   93     Total energy:    -149.60748536493992
::    RASSI State   94     Total energy:    -149.52671083094717
::    RASSI State   95     Total energy:    -149.52348491192791
::    RASSI State   96     Total energy:    -149.52010558216458
::    RASSI State   97     Total energy:    -149.50308657044729
::    RASSI State   98     Total energy:    -149.44433057979910
::    RASSI State   99     Total energy:    -149.60330272782639



      ****************************************************************************************************
      *                                                                                                  *
      *                                         Spin-free section                                        *
      *                                                                                                  *
      *                 Note: index according to input order, order according to energy.                 *
      *                                                                                                  *
      ****************************************************************************************************



  SPIN-FREE ENERGIES:
  (Shifted by EMIN (a.u.) =       -149.6101634203)

 SF State       Relative EMIN(au)   Rel lowest level(eV)    D:o, cm**(-1)      L_eff   Abs_M

    88             0.0000000000        0.0000000000              0.0000         1.0     0.0
    43             0.0000411928        0.0011209123              9.0408         2.0     2.0
     1             0.0000411928        0.0011209123              9.0408         2.0     2.0
     2             0.0005795852        0.0157713167            127.2042         0.9     0.0
    48             0.0017353443        0.0472211227            380.8640         1.0     0.0
    93             0.0026780554        0.0728735996            587.7652         2.0     2.0
    58             0.0026780554        0.0728735996            587.7652         2.0     2.0
    59             0.0031324786        0.0852390853            687.4996         0.9     0.0
    99             0.0068606925        0.1866889536           1505.7480         1.0     0.0
    87             0.0085485739        0.2326185471           1876.1951         2.0     1.0
    75             0.0085485739        0.2326185471           1876.1951         2.0     1.0
    54             0.0085489710        0.2326293525           1876.2823         2.0     2.0
    16             0.0085489710        0.2326293525           1876.2823         2.0     2.0
    17             0.0089251702        0.2428662538           1958.8484         0.9     0.0
    24             0.0117332216        0.3192772261           2575.1445         2.0     1.0
    36             0.0117332216        0.3192772261           2575.1445         2.0     1.0
    19             0.0135598796        0.3689831206           2976.0496         1.0     1.0
    31             0.0135598796        0.3689831206           2976.0496         1.0     1.0
    64             0.0135760982        0.3694244506           2979.6091         2.0     1.0
    76             0.0135760982        0.3694244506           2979.6091         2.0     1.0
    81             0.0140033434        0.3810503861           3073.3786         1.0     1.0
    69             0.0140033434        0.3810503861           3073.3786         1.0     1.0
    30             0.0149042453        0.4055651746           3271.1037         1.0     1.0
    42             0.0149042453        0.4055651746           3271.1037         1.0     1.0
     3             0.0273384815        0.7439179791           6000.1031         1.6     0.0
    60             0.0276420869        0.7521795023           6066.7368         1.6     0.0
    18             0.0282423783        0.7685142648           6198.4856         1.6     0.0
    49             0.0803466364        2.1863433577          17634.0484         2.7     0.0
    61             0.0834525894        2.2708606429          18315.7263         2.6     2.0
    94             0.0834525894        2.2708606429          18315.7263         2.6     2.0
    82             0.0840061666        2.2859242455          18437.2224         2.3     1.0
    70             0.0840061666        2.2859242455          18437.2224         2.3     1.0
    62             0.0840699680        2.2876603713          18451.2252         2.0     0.0
    95             0.0866785084        2.3586423713          19023.7337         2.9     0.0
    25             0.0867125258        2.3595680332          19031.1996         2.5     1.0
    37             0.0867125258        2.3595680332          19031.1996         2.5     1.0
    71             0.0894353735        2.4336604929          19628.7956         2.4     1.0
    83             0.0894353735        2.4336604929          19628.7956         2.4     1.0
    38             0.0900300137        2.4498414753          19759.3041         2.1     1.0
    26             0.0900300137        2.4498414753          19759.3041         2.1     1.0
    96             0.0900578382        2.4505986188          19765.4108         1.0     0.0
    72             0.0904439564        2.4611054324          19850.1540         3.0     3.0
    84             0.0904439564        2.4611054324          19850.1540         3.0     3.0
    50             0.0906537572        2.4668144008          19896.1999         1.3     0.0
    13             0.0906972040        2.4679966500          19905.7354         2.6     2.0
    51             0.0906972040        2.4679966500          19905.7354         2.6     2.0
    14             0.0911920458        2.4814619801          20014.3406         2.0     0.0
    27             0.0941930089        2.5631223481          20672.9759         3.0     3.0
    39             0.0941930089        2.5631223481          20672.9759         3.0     3.0
    73             0.0947059229        2.5770794486          20785.5475         1.4     1.0
    85             0.0947059229        2.5770794486          20785.5475         1.4     1.0
    40             0.0965373657        2.6269155446          21187.5027         1.6     1.0
    28             0.0965373657        2.6269155446          21187.5027         1.6     1.0
    63             0.1070768499        2.9137095201          23500.6522         2.4     2.0
    97             0.1070768499        2.9137095201          23500.6522         2.4     2.0
    15             0.1078675602        2.9352258440          23674.1930         2.4     2.0
    52             0.1078675602        2.9352258440          23674.1930         2.4     2.0
    74             0.1538935094        4.1876557250          33775.7212         1.0     1.0
    86             0.1538935094        4.1876557250          33775.7212         1.0     1.0
    41             0.1564098917        4.2561299763          34328.0033         1.0     1.0
    29             0.1564098917        4.2561299763          34328.0033         1.0     1.0
    65             0.1640097762        4.4629333691          35995.9852         3.6     1.0
    77             0.1640097762        4.4629333691          35995.9852         3.6     1.0
    44             0.1640633800        4.4643920023          36007.7498         3.9     2.0
     4             0.1640633800        4.4643920023          36007.7498         3.9     2.0
     5             0.1653198816        4.4985831533          36283.5201         3.8     0.0
    98             0.1658328405        4.5125414759          36396.1015         1.0     0.0
    53             0.1667292274        4.5369334051          36592.8357         1.0     0.0
    89             0.1668178578        4.5393451622          36612.2879         2.6     0.0
    90             0.1672492006        4.5510825968          36706.9566         2.9     2.0
    55             0.1672492006        4.5510825968          36706.9566         2.9     2.0
    20             0.1686418448        4.5889783755          37012.6067         2.3     1.0
    32             0.1686418448        4.5889783755          37012.6067         2.3     1.0
     6             0.1692527181        4.6056010849          37146.6779         1.2     0.0
    78             0.1695865796        4.6146859187          37219.9520         3.9     3.0
    66             0.1695865796        4.6146859187          37219.9520         3.9     3.0
     7             0.1719823672        4.6798786208          37745.7666         2.0     2.0
    45             0.1719823672        4.6798786208          37745.7666         2.0     2.0
    33             0.1727747575        4.7014406605          37919.6762         2.1     1.0
    21             0.1727747575        4.7014406605          37919.6762         2.1     1.0
    67             0.1728325782        4.7030140402          37932.3664         2.5     1.0
    79             0.1728325782        4.7030140402          37932.3664         2.5     1.0
    22             0.1772769457        4.8239514411          38907.7923         3.0     3.0
    34             0.1772769457        4.8239514411          38907.7923         3.0     3.0
     8             0.1864843131        5.0744966717          40928.5759         1.7     0.0
    91             0.1864981764        5.0748739129          40931.6185         1.7     0.0
    46             0.1874608030        5.1010683163          41142.8906         4.0     4.0
     9             0.1874608030        5.1010683163          41142.8906         4.0     4.0
    56             0.2268087395        6.1717802140          49778.7645         2.0     0.0
    80             0.2326505094        6.3307428703          51060.8848         2.0     1.0
    68             0.2326505094        6.3307428703          51060.8848         2.0     1.0
    23             0.2395550365        6.5186246262          52576.2533         2.0     1.0
    35             0.2395550365        6.5186246262          52576.2533         2.0     1.0
    10             0.2396255320        6.5205429055          52591.7253         1.9     0.0
    92             0.2445733438        6.6551797231          53677.6445         2.0     2.0
    57             0.2445733438        6.6551797231          53677.6445         2.0     2.0
    47             0.2471639307        6.7256731835          54246.2126         2.0     2.0
    11             0.2471639307        6.7256731835          54246.2126         2.0     2.0
    12             0.3065219470        8.3408870922          67273.7913         0.2     0.0

++ Dipole transition strengths (spin-free states):
   -----------------------------------------------
     for osc. strength at least  1.00000000E-05

      From   To        Osc. strength     Einstein coefficients Ax, Ay, Az (sec-1)    Total A (sec-1)
     -----------------------------------------------------------------------------------------------
        87   42       1.00922521E-05  0.00000000E+00  0.00000000E+00  1.30985082E+01  1.30985082E+01
        75   30       1.00922521E-05  0.00000000E+00  0.00000000E+00  1.30985082E+01  1.30985082E+01
        49   98       4.08788834E-05  0.00000000E+00  0.00000000E+00  9.59846917E+03  9.59846917E+03
        82   41       5.36498137E-05  0.00000000E+00  0.00000000E+00  9.03651395E+03  9.03651395E+03
        70   29       5.36498137E-05  0.00000000E+00  0.00000000E+00  9.03651395E+03  9.03651395E+03
        95   53       8.52605816E-05  0.00000000E+00  0.00000000E+00  1.75545479E+04  1.75545479E+04
        25   74       4.12978309E-05  0.00000000E+00  0.00000000E+00  5.98867631E+03  5.98867631E+03
        37   86       4.12978309E-05  0.00000000E+00  0.00000000E+00  5.98867631E+03  5.98867631E+03
        96   53       2.43118288E-05  0.00000000E+00  0.00000000E+00  4.59192913E+03  4.59192913E+03
        50   98       7.12098504E-05  0.00000000E+00  0.00000000E+00  1.29313840E+04  1.29313840E+04
        65   23       8.60351810E-05  0.00000000E+00  0.00000000E+00  1.57761637E+04  1.57761637E+04
        77   35       8.60351810E-05  0.00000000E+00  0.00000000E+00  1.57761637E+04  1.57761637E+04
        44   92       5.35845431E-05  0.00000000E+00  0.00000000E+00  1.11596270E+04  1.11596270E+04
         4   57       5.35845431E-05  0.00000000E+00  0.00000000E+00  1.11596270E+04  1.11596270E+04
         5   56       1.24527056E-04  0.00000000E+00  0.00000000E+00  1.51275103E+04  1.51275103E+04
        90   47       8.98704855E-05  0.00000000E+00  0.00000000E+00  1.84408801E+04  1.84408801E+04
        55   11       8.98704855E-05  0.00000000E+00  0.00000000E+00  1.84408801E+04  1.84408801E+04
        20   68       7.31446696E-05  0.00000000E+00  0.00000000E+00  9.62877634E+03  9.62877634E+03
        32   80       7.31446696E-05  0.00000000E+00  0.00000000E+00  9.62877634E+03  9.62877634E+03
         6   56       3.46833260E-05  0.00000000E+00  0.00000000E+00  3.69158738E+03  3.69158738E+03
        78   34       1.12848559E-05  0.00000000E+00  0.00000000E+00  2.14437596E+01  2.14437596E+01
        66   22       1.12848559E-05  0.00000000E+00  0.00000000E+00  2.14437596E+01  2.14437596E+01
         7   57       4.12603210E-05  0.00000000E+00  0.00000000E+00  6.98568123E+03  6.98568123E+03
        45   92       4.12603210E-05  0.00000000E+00  0.00000000E+00  6.98568123E+03  6.98568123E+03
        56   10       1.90787215E-05  0.00000000E+00  0.00000000E+00  1.00697540E+02  1.00697540E+02
        56   12       2.25356701E-04  0.00000000E+00  0.00000000E+00  4.60089083E+04  4.60089083E+04
     -----------------------------------------------------------------------------------------------
--

++ Velocity transition strengths (spin-free states):
   -------------------------------------------------
     for osc. strength at least  1.00000000E-05

      From   To        Osc. strength     Einstein coefficients Ax, Ay, Az (sec-1)    Total A (sec-1)
     -----------------------------------------------------------------------------------------------
        88   80       1.25755648E-05  2.18698799E+04  0.00000000E+00  0.00000000E+00  2.18698799E+04
        88   68       1.25755648E-05  0.00000000E+00  2.18698799E+04  0.00000000E+00  2.18698799E+04
        43   19       1.71311129E-04  0.00000000E+00  1.00592470E+03  0.00000000E+00  1.00592470E+03
        43   31       1.71311129E-04  1.00592470E+03  0.00000000E+00  0.00000000E+00  1.00592470E+03
         1   19       1.71311129E-04  1.00592470E+03  0.00000000E+00  0.00000000E+00  1.00592470E+03
         1   31       1.71311129E-04  0.00000000E+00  1.00592470E+03  0.00000000E+00  1.00592470E+03
         2   56       1.02630277E-05  0.00000000E+00  0.00000000E+00  1.68765444E+04  1.68765444E+04
        48   24       1.86321808E-05  0.00000000E+00  5.98398071E+01  0.00000000E+00  5.98398071E+01
        48   36       1.86321808E-05  5.98398071E+01  0.00000000E+00  0.00000000E+00  5.98398071E+01
        93   81       1.76848082E-04  7.28802322E+02  0.00000000E+00  0.00000000E+00  7.28802322E+02
        93   69       1.76848082E-04  0.00000000E+00  7.28802322E+02  0.00000000E+00  7.28802322E+02
        58   81       1.76848082E-04  0.00000000E+00  7.28802322E+02  0.00000000E+00  7.28802322E+02
        58   69       1.76848082E-04  7.28802322E+02  0.00000000E+00  0.00000000E+00  7.28802322E+02
        99   87       3.83658521E-04  3.51187946E+01  0.00000000E+00  0.00000000E+00  3.51187946E+01
        99   75       3.83658521E-04  0.00000000E+00  3.51187946E+01  0.00000000E+00  3.51187946E+01
        87   42       9.94243547E-04  0.00000000E+00  0.00000000E+00  1.29040645E+03  1.29040645E+03
        75   30       9.94243548E-04  0.00000000E+00  0.00000000E+00  1.29040645E+03  1.29040645E+03
        54   30       2.21978076E-04  0.00000000E+00  2.88064378E+02  0.00000000E+00  2.88064378E+02
        54   42       2.21978076E-04  2.88064378E+02  0.00000000E+00  0.00000000E+00  2.88064378E+02
        16   30       2.21978076E-04  2.88064378E+02  0.00000000E+00  0.00000000E+00  2.88064378E+02
        16   42       2.21978076E-04  0.00000000E+00  2.88064378E+02  0.00000000E+00  2.88064378E+02
        17   30       2.54950045E-05  2.92842420E+01  0.00000000E+00  0.00000000E+00  2.92842420E+01
        17   42       2.54950045E-05  0.00000000E+00  2.92842420E+01  0.00000000E+00  2.92842420E+01
        24   69       1.41251588E-03  0.00000000E+00  0.00000000E+00  2.33885084E+02  2.33885084E+02
        36   81       1.41251588E-03  0.00000000E+00  0.00000000E+00  2.33885084E+02  2.33885084E+02
        19   64       1.14873034E-01  0.00000000E+00  0.00000000E+00  9.70855066E-01  9.70855066E-01
        19    3       1.34522840E-03  8.20572984E+03  0.00000000E+00  0.00000000E+00  8.20572984E+03
        31   76       1.14873034E-01  0.00000000E+00  0.00000000E+00  9.70855066E-01  9.70855066E-01
        31    3       1.34522840E-03  0.00000000E+00  8.20572984E+03  0.00000000E+00  8.20572984E+03
        81   60       1.33595509E-03  0.00000000E+00  7.98456872E+03  0.00000000E+00  7.98456872E+03
        81   38       1.06448233E-05  0.00000000E+00  0.00000000E+00  1.97688442E+03  1.97688442E+03
        69   60       1.33595509E-03  7.98456872E+03  0.00000000E+00  0.00000000E+00  7.98456872E+03
        69   26       1.06448233E-05  0.00000000E+00  0.00000000E+00  1.97688442E+03  1.97688442E+03
        30   18       1.32156095E-03  7.55419465E+03  0.00000000E+00  0.00000000E+00  7.55419465E+03
        42   18       1.32156095E-03  0.00000000E+00  7.55419465E+03  0.00000000E+00  7.55419465E+03
        49   95       3.79713252E-04  0.00000000E+00  0.00000000E+00  4.89137417E+02  4.89137417E+02
        49   25       4.69431279E-04  0.00000000E+00  6.11224968E+02  0.00000000E+00  6.11224968E+02
        49   37       4.69431279E-04  6.11224968E+02  0.00000000E+00  0.00000000E+00  6.11224968E+02
        49   38       7.61118374E-05  2.29306724E+02  0.00000000E+00  0.00000000E+00  2.29306724E+02
        49   26       7.61118374E-05  0.00000000E+00  2.29306724E+02  0.00000000E+00  2.29306724E+02
        49   96       8.86254377E-04  0.00000000E+00  0.00000000E+00  2.68543860E+03  2.68543860E+03
        49   40       5.24136716E-05  4.41456876E+02  0.00000000E+00  0.00000000E+00  4.41456876E+02
        49   28       5.24136716E-05  0.00000000E+00  4.41456876E+02  0.00000000E+00  4.41456876E+02
        49   41       5.45211665E-05  1.01350487E+04  0.00000000E+00  0.00000000E+00  1.01350487E+04
        49   29       5.45211665E-05  0.00000000E+00  1.01350487E+04  0.00000000E+00  1.01350487E+04
        49   98       9.63714405E-05  0.00000000E+00  0.00000000E+00  2.26282673E+04  2.26282673E+04
        61   82       1.84598968E-05  0.00000000E+00  1.81759248E-01  0.00000000E+00  1.81759248E-01
        61   70       1.84598968E-05  1.81759248E-01  0.00000000E+00  0.00000000E+00  1.81759248E-01
        61   71       4.03231939E-05  4.63737775E+01  0.00000000E+00  0.00000000E+00  4.63737775E+01
        61   83       4.03231939E-05  0.00000000E+00  4.63737776E+01  0.00000000E+00  4.63737776E+01
        61   72       6.70482046E-05  1.05298514E+02  0.00000000E+00  0.00000000E+00  1.05298514E+02
        61   84       6.70482046E-05  0.00000000E+00  1.05298514E+02  0.00000000E+00  1.05298514E+02
        61   13       1.39456529E-05  0.00000000E+00  0.00000000E+00  2.35169130E+01  2.35169130E+01
        61   73       4.95279762E-05  2.01522642E+02  0.00000000E+00  0.00000000E+00  2.01522642E+02
        61   85       4.95279762E-05  0.00000000E+00  2.01522642E+02  0.00000000E+00  2.01522642E+02
        61   74       3.08541573E-05  4.91897496E+03  0.00000000E+00  0.00000000E+00  4.91897496E+03
        61   86       3.08541573E-05  0.00000000E+00  4.91897496E+03  0.00000000E+00  4.91897496E+03
        94   82       1.84598968E-05  1.81759248E-01  0.00000000E+00  0.00000000E+00  1.81759248E-01
        94   70       1.84598968E-05  0.00000000E+00  1.81759248E-01  0.00000000E+00  1.81759248E-01
        94   71       4.03231939E-05  0.00000000E+00  4.63737776E+01  0.00000000E+00  4.63737776E+01
        94   83       4.03231939E-05  4.63737775E+01  0.00000000E+00  0.00000000E+00  4.63737775E+01
        94   72       6.70482046E-05  0.00000000E+00  1.05298514E+02  0.00000000E+00  1.05298514E+02
        94   84       6.70482046E-05  1.05298514E+02  0.00000000E+00  0.00000000E+00  1.05298514E+02
        94   51       1.39456529E-05  0.00000000E+00  0.00000000E+00  2.35169130E+01  2.35169130E+01
        94   73       4.95279762E-05  0.00000000E+00  2.01522642E+02  0.00000000E+00  2.01522642E+02
        94   85       4.95279762E-05  2.01522642E+02  0.00000000E+00  0.00000000E+00  2.01522642E+02
        94   74       3.08541573E-05  0.00000000E+00  4.91897496E+03  0.00000000E+00  4.91897496E+03
        94   86       3.08541573E-05  4.91897496E+03  0.00000000E+00  0.00000000E+00  4.91897496E+03
        82   62       1.13751884E-02  0.00000000E+00  1.48775199E+00  0.00000000E+00  1.48775199E+00
        82   95       6.72945040E-04  1.54409672E+02  0.00000000E+00  0.00000000E+00  1.54409672E+02
        82   37       4.55538956E-05  0.00000000E+00  0.00000000E+00  1.07203091E+01  1.07203091E+01
        82   38       2.25402814E-05  0.00000000E+00  0.00000000E+00  2.62795603E+01  2.62795603E+01
        82   96       2.52547824E-05  2.97170174E+01  0.00000000E+00  0.00000000E+00  2.97170174E+01
        82   40       1.94632359E-05  0.00000000E+00  0.00000000E+00  9.81999326E+01  9.81999326E+01
        82   41       1.93212030E-05  0.00000000E+00  0.00000000E+00  3.25436956E+03  3.25436956E+03
        82   98       3.24353220E-05  6.97780605E+03  0.00000000E+00  0.00000000E+00  6.97780605E+03
        70   62       1.13751884E-02  1.48775199E+00  0.00000000E+00  0.00000000E+00  1.48775199E+00
        70   95       6.72945040E-04  0.00000000E+00  1.54409672E+02  0.00000000E+00  1.54409672E+02
        70   25       4.55538956E-05  0.00000000E+00  0.00000000E+00  1.07203091E+01  1.07203091E+01
        70   26       2.25402814E-05  0.00000000E+00  0.00000000E+00  2.62795603E+01  2.62795603E+01
        70   96       2.52547824E-05  0.00000000E+00  2.97170174E+01  0.00000000E+00  2.97170174E+01
        70   28       1.94632359E-05  0.00000000E+00  0.00000000E+00  9.81999326E+01  9.81999326E+01
        70   29       1.93212030E-05  0.00000000E+00  0.00000000E+00  3.25436956E+03  3.25436956E+03
        70   98       3.24353220E-05  0.00000000E+00  6.97780605E+03  0.00000000E+00  6.97780605E+03
        62   71       9.82404893E-05  9.08670651E+01  0.00000000E+00  0.00000000E+00  9.08670651E+01
        62   83       9.82404893E-05  0.00000000E+00  9.08670651E+01  0.00000000E+00  9.08670651E+01
        62   14       1.41104029E-05  0.00000000E+00  0.00000000E+00  2.29966047E+01  2.29966047E+01
        62   73       2.73986527E-05  9.95848025E+01  0.00000000E+00  0.00000000E+00  9.95848025E+01
        62   85       2.73986527E-05  0.00000000E+00  9.95848025E+01  0.00000000E+00  9.95848025E+01
        95   71       2.21220080E-03  0.00000000E+00  5.40214785E+02  0.00000000E+00  5.40214785E+02
        95   83       2.21220080E-03  5.40214785E+02  0.00000000E+00  0.00000000E+00  5.40214785E+02
        95   50       1.86513051E-03  0.00000000E+00  0.00000000E+00  9.46997279E+02  9.46997279E+02
        95   73       2.21907609E-04  0.00000000E+00  4.59445980E+02  0.00000000E+00  4.59445980E+02
        95   85       2.21907609E-04  4.59445980E+02  0.00000000E+00  0.00000000E+00  4.59445980E+02
        95   74       1.55819876E-04  0.00000000E+00  2.26186227E+04  0.00000000E+00  2.26186227E+04
        95   86       1.55819876E-04  2.26186227E+04  0.00000000E+00  0.00000000E+00  2.26186227E+04
        95   53       3.18381243E-05  0.00000000E+00  0.00000000E+00  6.55524355E+03  6.55524355E+03
        25   71       1.14052957E-04  0.00000000E+00  0.00000000E+00  2.71684038E+01  2.71684038E+01
        25   50       7.81487691E-05  0.00000000E+00  3.90028977E+01  0.00000000E+00  3.90028977E+01
        25   73       2.25952432E-04  0.00000000E+00  0.00000000E+00  4.63864010E+02  4.63864010E+02
        25   74       4.33482138E-05  0.00000000E+00  0.00000000E+00  6.28600621E+03  6.28600621E+03
        25   53       1.44502693E-05  0.00000000E+00  2.97267967E+03  0.00000000E+00  2.97267967E+03
        37   83       1.14052957E-04  0.00000000E+00  0.00000000E+00  2.71684038E+01  2.71684038E+01
        37   50       7.81487691E-05  3.90028977E+01  0.00000000E+00  0.00000000E+00  3.90028977E+01
        37   85       2.25952432E-04  0.00000000E+00  0.00000000E+00  4.63864010E+02  4.63864010E+02
        37   86       4.33482138E-05  0.00000000E+00  0.00000000E+00  6.28600621E+03  6.28600621E+03
        37   53       1.44502693E-05  2.97267967E+03  0.00000000E+00  0.00000000E+00  2.97267967E+03
        71   28       8.79598302E-04  0.00000000E+00  0.00000000E+00  1.42546199E+03  1.42546199E+03
        71   98       5.54087620E-05  0.00000000E+00  1.03907584E+04  0.00000000E+00  1.03907584E+04
        83   40       8.79598302E-04  0.00000000E+00  0.00000000E+00  1.42546199E+03  1.42546199E+03
        83   98       5.54087620E-05  1.03907584E+04  0.00000000E+00  0.00000000E+00  1.03907584E+04
        38   50       1.10941799E-03  1.38681382E+01  0.00000000E+00  0.00000000E+00  1.38681382E+01
        38   13       1.57923274E-04  0.00000000E+00  2.25868959E+00  0.00000000E+00  2.25868959E+00
        38   51       1.57923274E-04  2.25868960E+00  0.00000000E+00  0.00000000E+00  2.25868960E+00
        38   14       2.49446461E-03  0.00000000E+00  1.08224227E+02  0.00000000E+00  1.08224227E+02
        38   85       7.83728126E-04  0.00000000E+00  0.00000000E+00  5.50564833E+02  5.50564833E+02
        38   86       3.41763969E-05  0.00000000E+00  0.00000000E+00  4.47860265E+03  4.47860265E+03
        38   53       5.83365485E-05  1.10263922E+04  0.00000000E+00  0.00000000E+00  1.10263922E+04
        26   50       1.10941799E-03  0.00000000E+00  1.38681382E+01  0.00000000E+00  1.38681382E+01
        26   13       1.57923274E-04  2.25868959E+00  0.00000000E+00  0.00000000E+00  2.25868959E+00
        26   51       1.57923273E-04  0.00000000E+00  2.25868959E+00  0.00000000E+00  2.25868959E+00
        26   14       2.49446461E-03  1.08224227E+02  0.00000000E+00  0.00000000E+00  1.08224227E+02
        26   73       7.83728126E-04  0.00000000E+00  0.00000000E+00  5.50564833E+02  5.50564833E+02
        26   74       3.41763969E-05  0.00000000E+00  0.00000000E+00  4.47860265E+03  4.47860265E+03
        26   53       5.83365485E-05  0.00000000E+00  1.10263922E+04  0.00000000E+00  1.10263922E+04
        96   50       1.45006325E-03  0.00000000E+00  0.00000000E+00  1.65452102E+01  1.65452102E+01
        96   73       8.85200047E-04  0.00000000E+00  6.14469584E+02  0.00000000E+00  6.14469584E+02
        96   85       8.85200047E-04  6.14469584E+02  0.00000000E+00  0.00000000E+00  6.14469584E+02
        96   53       3.29701390E-05  0.00000000E+00  0.00000000E+00  6.22727904E+03  6.22727904E+03
        72   27       2.05414670E-05  0.00000000E+00  0.00000000E+00  9.27652637E+00  9.27652637E+00
        72   63       6.35456673E-04  5.64849096E+03  0.00000000E+00  0.00000000E+00  5.64849096E+03
        72   97       6.35456673E-04  0.00000000E+00  5.64849096E+03  0.00000000E+00  5.64849096E+03
        84   39       2.05414670E-05  0.00000000E+00  0.00000000E+00  9.27652638E+00  9.27652638E+00
        84   63       6.35456673E-04  0.00000000E+00  5.64849096E+03  0.00000000E+00  5.64849096E+03
        84   97       6.35456673E-04  5.64849096E+03  0.00000000E+00  0.00000000E+00  5.64849096E+03
        50   40       1.01788813E-03  1.13213565E+03  0.00000000E+00  0.00000000E+00  1.13213565E+03
        50   28       1.01788813E-03  0.00000000E+00  1.13213565E+03  0.00000000E+00  1.13213565E+03
        50   41       6.07890536E-05  8.44517817E+03  0.00000000E+00  0.00000000E+00  8.44517817E+03
        50   29       6.07890536E-05  0.00000000E+00  8.44517817E+03  0.00000000E+00  8.44517817E+03
        50   98       1.87374706E-05  0.00000000E+00  0.00000000E+00  3.40263920E+03  3.40263920E+03
        13   27       1.49827336E-05  5.88296576E+00  0.00000000E+00  0.00000000E+00  5.88296576E+00
        13   39       1.49827336E-05  0.00000000E+00  5.88296576E+00  0.00000000E+00  5.88296576E+00
        13   40       8.78144873E-05  0.00000000E+00  9.62336128E+01  0.00000000E+00  9.62336128E+01
        13   28       8.78144872E-05  9.62336128E+01  0.00000000E+00  0.00000000E+00  9.62336128E+01
        13   41       1.34404503E-05  0.00000000E+00  1.86476094E+03  0.00000000E+00  1.86476094E+03
        13   29       1.34404503E-05  1.86476094E+03  0.00000000E+00  0.00000000E+00  1.86476094E+03
        51   27       1.49827336E-05  0.00000000E+00  5.88296575E+00  0.00000000E+00  5.88296575E+00
        51   39       1.49827336E-05  5.88296575E+00  0.00000000E+00  0.00000000E+00  5.88296575E+00
        51   40       8.78144873E-05  9.62336129E+01  0.00000000E+00  0.00000000E+00  9.62336129E+01
        51   28       8.78144872E-05  0.00000000E+00  9.62336127E+01  0.00000000E+00  9.62336127E+01
        51   41       1.34404503E-05  1.86476094E+03  0.00000000E+00  0.00000000E+00  1.86476094E+03
        51   29       1.34404503E-05  0.00000000E+00  1.86476094E+03  0.00000000E+00  1.86476094E+03
        14   40       6.96842322E-05  0.00000000E+00  6.39724239E+01  0.00000000E+00  6.39724239E+01
        14   28       6.96842322E-05  6.39724239E+01  0.00000000E+00  0.00000000E+00  6.39724239E+01
        14   41       1.37413879E-05  0.00000000E+00  1.87790831E+03  0.00000000E+00  1.87790831E+03
        14   29       1.37413879E-05  1.87790831E+03  0.00000000E+00  0.00000000E+00  1.87790831E+03
        27   15       6.51880260E-04  3.91656086E+03  0.00000000E+00  0.00000000E+00  3.91656086E+03
        27   52       6.51880260E-04  0.00000000E+00  3.91656086E+03  0.00000000E+00  3.91656086E+03
        39   15       6.51880260E-04  0.00000000E+00  3.91656086E+03  0.00000000E+00  3.91656086E+03
        39   52       6.51880260E-04  3.91656086E+03  0.00000000E+00  0.00000000E+00  3.91656086E+03
        73   63       3.67178089E-04  1.80547768E+03  0.00000000E+00  0.00000000E+00  1.80547768E+03
        73   97       3.67178089E-04  0.00000000E+00  1.80547768E+03  0.00000000E+00  1.80547768E+03
        73   98       2.26219044E-05  0.00000000E+00  3.67712185E+03  0.00000000E+00  3.67712185E+03
        85   63       3.67178089E-04  0.00000000E+00  1.80547768E+03  0.00000000E+00  1.80547768E+03
        85   97       3.67178089E-04  1.80547768E+03  0.00000000E+00  0.00000000E+00  1.80547768E+03
        85   98       2.26219044E-05  3.67712185E+03  0.00000000E+00  0.00000000E+00  3.67712185E+03
        40   15       3.82945801E-04  0.00000000E+00  1.57951199E+03  0.00000000E+00  1.57951199E+03
        40   52       3.82945801E-04  1.57951199E+03  0.00000000E+00  0.00000000E+00  1.57951199E+03
        40   86       1.00352224E-05  0.00000000E+00  0.00000000E+00  1.06071271E+03  1.06071271E+03
        40   53       2.89862457E-05  4.58855959E+03  0.00000000E+00  0.00000000E+00  4.58855959E+03
        28   15       3.82945801E-04  1.57951199E+03  0.00000000E+00  0.00000000E+00  1.57951199E+03
        28   52       3.82945801E-04  0.00000000E+00  1.57951199E+03  0.00000000E+00  1.57951199E+03
        28   74       1.00352224E-05  0.00000000E+00  0.00000000E+00  1.06071271E+03  1.06071271E+03
        28   53       2.89862457E-05  0.00000000E+00  4.58855959E+03  0.00000000E+00  4.58855959E+03
        63   15       1.41732757E-05  0.00000000E+00  0.00000000E+00  2.84718660E-01  2.84718660E-01
        97   52       1.41732757E-05  0.00000000E+00  0.00000000E+00  2.84718660E-01  2.84718660E-01
        74   29       1.34344571E-04  0.00000000E+00  0.00000000E+00  2.73328081E+01  2.73328081E+01
        74   98       2.63790590E-04  0.00000000E+00  1.20817592E+03  0.00000000E+00  1.20817592E+03
        86   41       1.34344571E-04  0.00000000E+00  0.00000000E+00  2.73328081E+01  2.73328081E+01
        86   98       2.63790590E-04  1.20817592E+03  0.00000000E+00  0.00000000E+00  1.20817592E+03
        41   53       3.25194876E-04  1.11264868E+03  0.00000000E+00  0.00000000E+00  1.11264868E+03
        29   53       3.25194876E-04  0.00000000E+00  1.11264868E+03  0.00000000E+00  1.11264868E+03
        65   89       6.60851703E-04  0.00000000E+00  1.67430411E+02  0.00000000E+00  1.67430411E+02
        65   20       9.06667741E-04  0.00000000E+00  0.00000000E+00  6.25041714E+02  6.25041714E+02
        65   21       3.54023649E-05  0.00000000E+00  0.00000000E+00  8.73866607E+01  8.73866607E+01
        65   56       1.60247947E-04  2.03052483E+04  0.00000000E+00  0.00000000E+00  2.03052483E+04
        77   89       6.60851703E-04  1.67430411E+02  0.00000000E+00  0.00000000E+00  1.67430411E+02
        77   32       9.06667741E-04  0.00000000E+00  0.00000000E+00  6.25041714E+02  6.25041714E+02
        77   33       3.54023649E-05  0.00000000E+00  0.00000000E+00  8.73866607E+01  8.73866607E+01
        77   56       1.60247947E-04  0.00000000E+00  2.03052483E+04  0.00000000E+00  2.03052483E+04
        44   90       1.83247279E-03  0.00000000E+00  0.00000000E+00  5.97573109E+02  5.97573109E+02
        44   20       1.67612945E-04  0.00000000E+00  1.12890707E+02  0.00000000E+00  1.12890707E+02
        44   32       1.67612945E-04  1.12890707E+02  0.00000000E+00  0.00000000E+00  1.12890707E+02
        44   33       5.02585890E-04  1.22544788E+03  0.00000000E+00  0.00000000E+00  1.22544788E+03
        44   21       5.02585890E-04  0.00000000E+00  1.22544788E+03  0.00000000E+00  1.22544788E+03
        44   22       1.50243070E-04  0.00000000E+00  8.42840481E+02  0.00000000E+00  8.42840481E+02
        44   34       1.50243070E-04  8.42840481E+02  0.00000000E+00  0.00000000E+00  8.42840481E+02
        44   92       6.76673424E-05  0.00000000E+00  0.00000000E+00  1.40925397E+04  1.40925397E+04
         4   55       1.83247279E-03  0.00000000E+00  0.00000000E+00  5.97573109E+02  5.97573109E+02
         4   20       1.67612945E-04  1.12890707E+02  0.00000000E+00  0.00000000E+00  1.12890707E+02
         4   32       1.67612945E-04  0.00000000E+00  1.12890707E+02  0.00000000E+00  1.12890707E+02
         4   33       5.02585890E-04  0.00000000E+00  1.22544788E+03  0.00000000E+00  1.22544788E+03
         4   21       5.02585890E-04  1.22544788E+03  0.00000000E+00  0.00000000E+00  1.22544788E+03
         4   22       1.50243070E-04  8.42840481E+02  0.00000000E+00  0.00000000E+00  8.42840481E+02
         4   34       1.50243070E-04  0.00000000E+00  8.42840481E+02  0.00000000E+00  8.42840481E+02
         4   57       6.76673424E-05  0.00000000E+00  0.00000000E+00  1.40925397E+04  1.40925397E+04
         5   20       2.97614287E-04  1.05524737E+02  0.00000000E+00  0.00000000E+00  1.05524737E+02
         5   32       2.97614286E-04  0.00000000E+00  1.05524737E+02  0.00000000E+00  1.05524737E+02
         5   33       2.70860902E-04  0.00000000E+00  4.83657625E+02  0.00000000E+00  4.83657625E+02
         5   21       2.70860902E-04  4.83657625E+02  0.00000000E+00  0.00000000E+00  4.83657625E+02
         5   56       2.53633848E-05  0.00000000E+00  0.00000000E+00  3.08113655E+03  3.08113655E+03
         5   23       1.29679792E-04  2.29616147E+04  0.00000000E+00  0.00000000E+00  2.29616147E+04
         5   35       1.29679792E-04  0.00000000E+00  2.29616147E+04  0.00000000E+00  2.29616147E+04
        98   53       8.29747688E-05  0.00000000E+00  0.00000000E+00  2.14214025E+00  2.14214025E+00
        89   67       5.88696505E-04  0.00000000E+00  6.84279008E+02  0.00000000E+00  6.84279008E+02
        89   79       5.88696504E-04  6.84279008E+02  0.00000000E+00  0.00000000E+00  6.84279008E+02
        89   80       1.37443582E-05  1.91389471E+03  0.00000000E+00  0.00000000E+00  1.91389471E+03
        89   68       1.37443582E-05  0.00000000E+00  1.91389471E+03  0.00000000E+00  1.91389471E+03
        90   78       1.21479168E-03  2.13241121E+02  0.00000000E+00  0.00000000E+00  2.13241121E+02
        90   66       1.21479168E-03  0.00000000E+00  2.13241121E+02  0.00000000E+00  2.13241121E+02
        90   45       1.31309838E-03  0.00000000E+00  0.00000000E+00  9.45173916E+02  9.45173916E+02
        90   67       1.72206315E-03  0.00000000E+00  1.72486040E+03  0.00000000E+00  1.72486040E+03
        90   79       1.72206315E-03  1.72486040E+03  0.00000000E+00  0.00000000E+00  1.72486040E+03
        90   80       6.13076264E-05  8.42555007E+03  0.00000000E+00  0.00000000E+00  8.42555007E+03
        90   68       6.13076264E-05  0.00000000E+00  8.42555007E+03  0.00000000E+00  8.42555007E+03
        55   78       1.21479168E-03  0.00000000E+00  2.13241121E+02  0.00000000E+00  2.13241121E+02
        55   66       1.21479168E-03  2.13241121E+02  0.00000000E+00  0.00000000E+00  2.13241121E+02
        55    7       1.31309838E-03  0.00000000E+00  0.00000000E+00  9.45173916E+02  9.45173916E+02
        55   67       1.72206315E-03  1.72486040E+03  0.00000000E+00  0.00000000E+00  1.72486040E+03
        55   79       1.72206315E-03  0.00000000E+00  1.72486040E+03  0.00000000E+00  1.72486040E+03
        55   80       6.13076264E-05  0.00000000E+00  8.42555007E+03  0.00000000E+00  8.42555007E+03
        55   68       6.13076264E-05  8.42555007E+03  0.00000000E+00  0.00000000E+00  8.42555007E+03
        20    6       3.54655050E-05  4.25225524E-01  0.00000000E+00  0.00000000E+00  4.25225524E-01
        20    7       8.82277973E-05  3.16333434E+01  0.00000000E+00  0.00000000E+00  3.16333434E+01
        20   45       8.82277973E-05  0.00000000E+00  3.16333434E+01  0.00000000E+00  3.16333434E+01
        20   67       2.23270592E-04  0.00000000E+00  0.00000000E+00  1.25986053E+02  1.25986053E+02
        20    8       3.91218699E-05  4.00166155E+02  0.00000000E+00  0.00000000E+00  4.00166155E+02
        20   68       2.24942639E-04  0.00000000E+00  0.00000000E+00  2.96114860E+04  2.96114860E+04
        20   10       6.64607268E-05  1.07595245E+04  0.00000000E+00  0.00000000E+00  1.07595245E+04
        20   47       1.17609804E-05  0.00000000E+00  2.32990420E+03  0.00000000E+00  2.32990420E+03
        20   11       1.17609804E-05  2.32990420E+03  0.00000000E+00  0.00000000E+00  2.32990420E+03
        20   12       1.38921634E-05  8.48562741E+03  0.00000000E+00  0.00000000E+00  8.48562741E+03
        32    6       3.54655051E-05  0.00000000E+00  4.25225524E-01  0.00000000E+00  4.25225524E-01
        32    7       8.82277973E-05  0.00000000E+00  3.16333434E+01  0.00000000E+00  3.16333434E+01
        32   45       8.82277973E-05  3.16333435E+01  0.00000000E+00  0.00000000E+00  3.16333435E+01
        32   79       2.23270592E-04  0.00000000E+00  0.00000000E+00  1.25986053E+02  1.25986053E+02
        32    8       3.91218699E-05  0.00000000E+00  4.00166155E+02  0.00000000E+00  4.00166155E+02
        32   80       2.24942639E-04  0.00000000E+00  0.00000000E+00  2.96114860E+04  2.96114860E+04
        32   10       6.64607268E-05  0.00000000E+00  1.07595245E+04  0.00000000E+00  1.07595245E+04
        32   47       1.17609804E-05  2.32990420E+03  0.00000000E+00  0.00000000E+00  2.32990420E+03
        32   11       1.17609804E-05  0.00000000E+00  2.32990420E+03  0.00000000E+00  2.32990420E+03
        32   12       1.38921634E-05  0.00000000E+00  8.48562741E+03  0.00000000E+00  8.48562741E+03
         6   33       6.14388326E-04  0.00000000E+00  2.44873770E+02  0.00000000E+00  2.44873770E+02
         6   21       6.14388326E-04  2.44873770E+02  0.00000000E+00  0.00000000E+00  2.44873770E+02
         6   56       4.14098145E-04  0.00000000E+00  0.00000000E+00  4.40753428E+04  4.40753428E+04
         6   23       1.51176674E-05  2.40068381E+03  0.00000000E+00  0.00000000E+00  2.40068381E+03
         6   35       1.51176674E-05  0.00000000E+00  2.40068382E+03  0.00000000E+00  2.40068382E+03
        78   34       8.10599646E-04  0.00000000E+00  0.00000000E+00  1.54032131E+03  1.54032131E+03
        78   92       1.53544415E-04  2.77404903E+04  0.00000000E+00  0.00000000E+00  2.77404903E+04
        78   57       1.53544415E-04  0.00000000E+00  2.77404903E+04  0.00000000E+00  2.77404903E+04
        66   22       8.10599646E-04  0.00000000E+00  0.00000000E+00  1.54032131E+03  1.54032131E+03
        66   92       1.53544415E-04  0.00000000E+00  2.77404903E+04  0.00000000E+00  2.77404903E+04
        66   57       1.53544415E-04  2.77404903E+04  0.00000000E+00  0.00000000E+00  2.77404903E+04
         7   33       5.09706575E-03  0.00000000E+00  1.02827545E+02  0.00000000E+00  1.02827545E+02
         7   21       5.09706575E-03  1.02827545E+02  0.00000000E+00  0.00000000E+00  1.02827545E+02
         7   22       1.26399422E-04  1.13846256E+02  0.00000000E+00  0.00000000E+00  1.13846256E+02
         7   34       1.26399422E-04  0.00000000E+00  1.13846256E+02  0.00000000E+00  1.13846256E+02
         7   23       5.18927075E-05  7.61306196E+03  0.00000000E+00  0.00000000E+00  7.61306196E+03
         7   35       5.18927075E-05  0.00000000E+00  7.61306196E+03  0.00000000E+00  7.61306196E+03
         7   57       3.86030678E-05  0.00000000E+00  0.00000000E+00  6.53578836E+03  6.53578836E+03
        45   33       5.09706575E-03  1.02827545E+02  0.00000000E+00  0.00000000E+00  1.02827545E+02
        45   21       5.09706575E-03  0.00000000E+00  1.02827545E+02  0.00000000E+00  1.02827545E+02
        45   22       1.26399422E-04  0.00000000E+00  1.13846256E+02  0.00000000E+00  1.13846256E+02
        45   34       1.26399422E-04  1.13846256E+02  0.00000000E+00  0.00000000E+00  1.13846256E+02
        45   23       5.18927075E-05  0.00000000E+00  7.61306196E+03  0.00000000E+00  7.61306196E+03
        45   35       5.18927075E-05  7.61306196E+03  0.00000000E+00  0.00000000E+00  7.61306196E+03
        45   92       3.86030678E-05  0.00000000E+00  0.00000000E+00  6.53578836E+03  6.53578836E+03
        33   79       7.15756415E-04  0.00000000E+00  0.00000000E+00  7.68850469E-02  7.68850469E-02
        33    8       1.28231169E-03  0.00000000E+00  7.74374840E+03  0.00000000E+00  7.74374840E+03
        33   80       4.05809872E-05  0.00000000E+00  0.00000000E+00  4.67450308E+03  4.67450308E+03
        21   67       7.15756416E-04  0.00000000E+00  0.00000000E+00  7.68850468E-02  7.68850468E-02
        21    8       1.28231169E-03  7.74374840E+03  0.00000000E+00  0.00000000E+00  7.74374840E+03
        21   68       4.05809872E-05  0.00000000E+00  0.00000000E+00  4.67450308E+03  4.67450308E+03
        67   91       1.34701112E-03  0.00000000E+00  8.08238181E+03  0.00000000E+00  8.08238181E+03
        79   91       1.34701112E-03  8.08238181E+03  0.00000000E+00  0.00000000E+00  8.08238181E+03
        22   46       5.91192036E-05  0.00000000E+00  1.96999022E+02  0.00000000E+00  1.96999022E+02
        22    9       5.91192036E-05  1.96999022E+02  0.00000000E+00  0.00000000E+00  1.96999022E+02
        22   47       7.55214387E-05  0.00000000E+00  1.18515117E+04  0.00000000E+00  1.18515117E+04
        22   11       7.55214387E-05  1.18515117E+04  0.00000000E+00  0.00000000E+00  1.18515117E+04
        34   46       5.91192036E-05  1.96999022E+02  0.00000000E+00  0.00000000E+00  1.96999022E+02
        34    9       5.91192036E-05  0.00000000E+00  1.96999022E+02  0.00000000E+00  1.96999022E+02
        34   47       7.55214387E-05  1.18515117E+04  0.00000000E+00  0.00000000E+00  1.18515117E+04
        34   11       7.55214387E-05  0.00000000E+00  1.18515117E+04  0.00000000E+00  1.18515117E+04
         8   23       1.99346461E-05  1.80397049E+03  0.00000000E+00  0.00000000E+00  1.80397049E+03
         8   35       1.99346461E-05  0.00000000E+00  1.80397049E+03  0.00000000E+00  1.80397049E+03
        91   80       2.42466965E-05  1.65939882E+03  0.00000000E+00  0.00000000E+00  1.65939882E+03
        91   68       2.42466965E-05  0.00000000E+00  1.65939882E+03  0.00000000E+00  1.65939882E+03
        56   10       1.71541548E-03  0.00000000E+00  0.00000000E+00  9.05396719E+03  9.05396719E+03
[...]
        25   71      --------------- below threshold  1.14052957E-04
        25   50      --------------- below threshold  7.81487691E-05
        25   73      --------------- below threshold  2.25952432E-04
        25   53      --------------- below threshold  1.44502693E-05
        37   83      --------------- below threshold  1.14052957E-04
        37   50      --------------- below threshold  7.81487691E-05
        37   85      --------------- below threshold  2.25952432E-04
        37   53      --------------- below threshold  1.44502693E-05
        71   28      --------------- below threshold  8.79598302E-04
        71   98      --------------- below threshold  5.54087620E-05
        83   40      --------------- below threshold  8.79598302E-04
        83   98      --------------- below threshold  5.54087620E-05
        38   50      --------------- below threshold  1.10941799E-03
        38   13      --------------- below threshold  1.57923274E-04
        38   51      --------------- below threshold  1.57923274E-04
        38   14      --------------- below threshold  2.49446461E-03
        38   85      --------------- below threshold  7.83728126E-04
        38   86      --------------- below threshold  3.41763969E-05
        38   53      --------------- below threshold  5.83365485E-05
        26   50      --------------- below threshold  1.10941799E-03
        26   13      --------------- below threshold  1.57923274E-04
        26   51      --------------- below threshold  1.57923273E-04
        26   14      --------------- below threshold  2.49446461E-03
        26   73      --------------- below threshold  7.83728126E-04
        26   74      --------------- below threshold  3.41763969E-05
        26   53      --------------- below threshold  5.83365485E-05
        96   50      --------------- below threshold  1.45006325E-03
        96   73      --------------- below threshold  8.85200047E-04
        96   85      --------------- below threshold  8.85200047E-04
        96   53            26.261067  2.43118288E-05  3.29701390E-05
        72   27      --------------- below threshold  2.05414670E-05
        72   63      --------------- below threshold  6.35456673E-04
        72   97      --------------- below threshold  6.35456673E-04
        84   39      --------------- below threshold  2.05414670E-05
        84   63      --------------- below threshold  6.35456673E-04
        84   97      --------------- below threshold  6.35456673E-04
        50   40      --------------- below threshold  1.01788813E-03
        50   28      --------------- below threshold  1.01788813E-03
        50   41      --------------- below threshold  6.07890536E-05
        50   29      --------------- below threshold  6.07890536E-05
        50   98           280.039824  7.12098504E-05  1.87374706E-05
        13   27      --------------- below threshold  1.49827336E-05
        13   39      --------------- below threshold  1.49827336E-05
        13   40      --------------- below threshold  8.78144873E-05
        13   28      --------------- below threshold  8.78144872E-05
        13   41      --------------- below threshold  1.34404503E-05
        13   29      --------------- below threshold  1.34404503E-05
        51   27      --------------- below threshold  1.49827336E-05
        51   39      --------------- below threshold  1.49827336E-05
        51   40      --------------- below threshold  8.78144873E-05
        51   28      --------------- below threshold  8.78144872E-05
        51   41      --------------- below threshold  1.34404503E-05
        51   29      --------------- below threshold  1.34404503E-05
        14   40      --------------- below threshold  6.96842322E-05
        14   28      --------------- below threshold  6.96842322E-05
        14   41      --------------- below threshold  1.37413879E-05
        14   29      --------------- below threshold  1.37413879E-05
        27   15      --------------- below threshold  6.51880260E-04
        27   52      --------------- below threshold  6.51880260E-04
        39   15      --------------- below threshold  6.51880260E-04
        39   52      --------------- below threshold  6.51880260E-04
        73   63      --------------- below threshold  3.67178089E-04
        73   97      --------------- below threshold  3.67178089E-04
        73   98      --------------- below threshold  2.26219044E-05
        85   63      --------------- below threshold  3.67178089E-04
        85   97      --------------- below threshold  3.67178089E-04
        85   98      --------------- below threshold  2.26219044E-05
        40   15      --------------- below threshold  3.82945801E-04
        40   52      --------------- below threshold  3.82945801E-04
        40   86      --------------- below threshold  1.00352224E-05
        40   53      --------------- below threshold  2.89862457E-05
        28   15      --------------- below threshold  3.82945801E-04
        28   52      --------------- below threshold  3.82945801E-04
        28   74      --------------- below threshold  1.00352224E-05
        28   53      --------------- below threshold  2.89862457E-05
        63   15      --------------- below threshold  1.41732757E-05
        97   52      --------------- below threshold  1.41732757E-05
        74   29      --------------- below threshold  1.34344571E-04
        74   98      --------------- below threshold  2.63790590E-04
        86   41      --------------- below threshold  1.34344571E-04
        86   98      --------------- below threshold  2.63790590E-04
        41   53      --------------- below threshold  3.25194876E-04
        29   53      --------------- below threshold  3.25194876E-04
        65   89      --------------- below threshold  6.60851703E-04
        65   20      --------------- below threshold  9.06667741E-04
        65   21      --------------- below threshold  3.54023649E-05
        65   56      --------------- below threshold  1.60247947E-04
        65   23      ---------------  8.60351810E-05 below threshold
        77   89      --------------- below threshold  6.60851703E-04
        77   32      --------------- below threshold  9.06667741E-04
        77   33      --------------- below threshold  3.54023649E-05
        77   56      --------------- below threshold  1.60247947E-04
        77   35      ---------------  8.60351810E-05 below threshold
        44   90      --------------- below threshold  1.83247279E-03
        44   20      --------------- below threshold  1.67612945E-04
        44   32      --------------- below threshold  1.67612945E-04
        44   33      --------------- below threshold  5.02585890E-04
        44   21      --------------- below threshold  5.02585890E-04
        44   22      --------------- below threshold  1.50243070E-04
        44   34      --------------- below threshold  1.50243070E-04
        44   92            20.811811  5.35845431E-05  6.76673424E-05
         4   55      --------------- below threshold  1.83247279E-03
         4   20      --------------- below threshold  1.67612945E-04
         4   32      --------------- below threshold  1.67612945E-04
         4   33      --------------- below threshold  5.02585890E-04
         4   21      --------------- below threshold  5.02585890E-04
         4   22      --------------- below threshold  1.50243070E-04
         4   34      --------------- below threshold  1.50243070E-04
         4   57            20.811811  5.35845431E-05  6.76673424E-05
         5   20      --------------- below threshold  2.97614287E-04
         5   32      --------------- below threshold  2.97614286E-04
         5   33      --------------- below threshold  2.70860902E-04
         5   21      --------------- below threshold  2.70860902E-04
         5   56           390.971760  1.24527056E-04  2.53633848E-05
         5   23      --------------- below threshold  1.29679792E-04
         5   35      --------------- below threshold  1.29679792E-04
        98   53      --------------- below threshold  8.29747688E-05
        89   67      --------------- below threshold  5.88696505E-04
        89   79      --------------- below threshold  5.88696504E-04
        89   80      --------------- below threshold  1.37443582E-05
        89   68      --------------- below threshold  1.37443582E-05
        90   78      --------------- below threshold  1.21479168E-03
        90   66      --------------- below threshold  1.21479168E-03
        90   45      --------------- below threshold  1.31309838E-03
        90   67      --------------- below threshold  1.72206315E-03
        90   79      --------------- below threshold  1.72206315E-03
        90   80      --------------- below threshold  6.13076264E-05
        90   68      --------------- below threshold  6.13076264E-05
        90   47      ---------------  8.98704855E-05 below threshold
        55   78      --------------- below threshold  1.21479168E-03
        55   66      --------------- below threshold  1.21479168E-03
        55    7      --------------- below threshold  1.31309838E-03
        55   67      --------------- below threshold  1.72206315E-03
        55   79      --------------- below threshold  1.72206315E-03
        55   80      --------------- below threshold  6.13076264E-05
        55   68      --------------- below threshold  6.13076264E-05
        55   11      ---------------  8.98704855E-05 below threshold
        20    6      --------------- below threshold  3.54655050E-05
        20    7      --------------- below threshold  8.82277973E-05
        20   45      --------------- below threshold  8.82277973E-05
        20   67      --------------- below threshold  2.23270592E-04
        20    8      --------------- below threshold  3.91218699E-05
        20   68            67.482968  7.31446696E-05  2.24942639E-04
        20   10      --------------- below threshold  6.64607268E-05
        20   47      --------------- below threshold  1.17609804E-05
        20   11      --------------- below threshold  1.17609804E-05
        20   12      --------------- below threshold  1.38921634E-05
        32    6      --------------- below threshold  3.54655051E-05
        32    7      --------------- below threshold  8.82277973E-05
        32   45      --------------- below threshold  8.82277973E-05
        32   79      --------------- below threshold  2.23270592E-04
        32    8      --------------- below threshold  3.91218699E-05
        32   80            67.482968  7.31446696E-05  2.24942639E-04
        32   10      --------------- below threshold  6.64607268E-05
        32   47      --------------- below threshold  1.17609804E-05
        32   11      --------------- below threshold  1.17609804E-05
        32   12      --------------- below threshold  1.38921634E-05
         6   33      --------------- below threshold  6.14388326E-04
         6   21      --------------- below threshold  6.14388326E-04
         6   56            91.624371  3.46833260E-05  4.14098145E-04
         6   23      --------------- below threshold  1.51176674E-05
         6   35      --------------- below threshold  1.51176674E-05
        78   34            98.607839  1.12848559E-05  8.10599646E-04
        78   92      --------------- below threshold  1.53544415E-04
        78   57      --------------- below threshold  1.53544415E-04
        66   22            98.607839  1.12848559E-05  8.10599646E-04
        66   92      --------------- below threshold  1.53544415E-04
        66   57      --------------- below threshold  1.53544415E-04
         7   33      --------------- below threshold  5.09706575E-03
         7   21      --------------- below threshold  5.09706575E-03
         7   22      --------------- below threshold  1.26399422E-04
         7   34      --------------- below threshold  1.26399422E-04
         7   23      --------------- below threshold  5.18927075E-05
         7   35      --------------- below threshold  5.18927075E-05
        45   33      --------------- below threshold  5.09706575E-03
        45   21      --------------- below threshold  5.09706575E-03
        45   22      --------------- below threshold  1.26399422E-04
        45   34      --------------- below threshold  1.26399422E-04
        45   23      --------------- below threshold  5.18927075E-05
        45   35      --------------- below threshold  5.18927075E-05
        33   79      --------------- below threshold  7.15756415E-04
        33    8      --------------- below threshold  1.28231169E-03
        33   80      --------------- below threshold  4.05809872E-05
        21   67      --------------- below threshold  7.15756416E-04
        21    8      --------------- below threshold  1.28231169E-03
        21   68      --------------- below threshold  4.05809872E-05
        67   91      --------------- below threshold  1.34701112E-03
        79   91      --------------- below threshold  1.34701112E-03
        22   46      --------------- below threshold  5.91192036E-05
        22    9      --------------- below threshold  5.91192036E-05
        22   47      --------------- below threshold  7.55214387E-05
        22   11      --------------- below threshold  7.55214387E-05
        34   46      --------------- below threshold  5.91192036E-05
        34    9      --------------- below threshold  5.91192036E-05
        34   47      --------------- below threshold  7.55214387E-05
        34   11      --------------- below threshold  7.55214387E-05
         8   23      --------------- below threshold  1.99346461E-05
         8   35      --------------- below threshold  1.99346461E-05
        91   80      --------------- below threshold  2.42466965E-05
        91   68      --------------- below threshold  2.42466965E-05
        56   10            98.887808  1.90787215E-05  1.71541548E-03
        56   12          1001.547599  2.25356701E-04  2.04581900E-05
        80   35      --------------- below threshold  4.80287429E-04
        68   23      --------------- below threshold  4.80287429E-04
        23   10      --------------- below threshold  1.50323604E-01
        23   47      --------------- below threshold  3.55490794E-04
        23   11      --------------- below threshold  3.55490794E-04
        23   12      --------------- below threshold  3.99698960E-05
        35   10      --------------- below threshold  1.50323604E-01
        35   47      --------------- below threshold  3.55490794E-04
        35   11      --------------- below threshold  3.55490794E-04
        35   12      --------------- below threshold  3.99698960E-05
        92   47      --------------- below threshold  2.06295299E-05
        57   11      --------------- below threshold  2.06295299E-05
     ---------------------------------------------------------------

 Number of problematic transitions =                   311

--

 Electric-dipole - electric-octupole not included
 Electric-dipole - magnetic-quadrupole not included


      ****************************************************************************************************
      *                                                                                                  *
      *                                    Special properties section                                    *
      *                                                                                                  *
      ****************************************************************************************************


++ I/O STATISTICS
 
  I. General I/O information
  - - - - - - - - - - - - - - - - - - - - - - - - - - - - - - - - - - - - - - - - - - -
  Unit  Name          Flsize      Write/Read            MBytes           Write/Read
                      (MBytes)       Calls              In/Out           Time, sec.
  - - - - - - - - - - - - - - - - - - - - - - - - - - - - - - - - - - - - - - - - - - -
   1  RUNFILE           0.99 .     266/  262973 .      2.5/   1902.4 .       0/       0
   2  ANNI              0.00 .       0/       0 .      0.0/      0.0 .       0/       0
   3  ONEINT            1.54 .       0/  126040 .      0.0/ 152831.4 .       0/      19
   4  JOBIPH            1.52 .       0/     651 .      0.0/      1.5 .       0/       0
   5  JOBIPH01          1.22 .       0/     219 .      0.0/      1.3 .       0/       0
   6  JOBIPH02          1.22 .       0/     219 .      0.0/      1.3 .       0/       0
   7  JOBIPH03          1.28 .       0/     315 .      0.0/      1.4 .       0/       0
   8  JOBIPH04          1.32 .       0/     363 .      0.0/      1.4 .       0/       0
   9  JOBIPH05          1.15 .       0/     123 .      0.0/      1.3 .       0/       0
  10  JOBIPH06          1.28 .       0/     315 .      0.0/      1.4 .       0/       0
  11  JOBIPH07          1.32 .       0/     363 .      0.0/      1.4 .       0/       0
  12  JOBIPH08          1.15 .       0/     123 .      0.0/      1.3 .       0/       0
  13  JOBIPH09          1.28 .       0/     315 .      0.0/      1.4 .       0/       0
  14  JOBIPH10          1.32 .       0/     363 .      0.0/      1.4 .       0/       0
  15  JOBIPH11          1.15 .       0/     123 .      0.0/      1.3 .       0/       0
  16  JOBIPH12          1.22 .       0/     219 .      0.0/      1.3 .       0/       0
  17  JOBIPH13          1.32 .       0/     363 .      0.0/      1.4 .       0/       0
  18  JOBIPH14          1.28 .       0/     315 .      0.0/      1.4 .       0/       0
  19  JOBIPH15          1.32 .       0/     363 .      0.0/      1.4 .       0/       0
  20  JOBIPH16          1.15 .       0/     123 .      0.0/      1.3 .       0/       0
  21  JOBIPH17          1.28 .       0/     315 .      0.0/      1.4 .       0/       0
  22  JOBIPH18          1.32 .       0/     363 .      0.0/      1.4 .       0/       0
  23  JOBIPH19          1.15 .       0/     123 .      0.0/      1.3 .       0/       0
  24  JOBIPH20          1.28 .       0/     315 .      0.0/      1.4 .       0/       0
  25  JOBIPH21          1.32 .       0/     363 .      0.0/      1.4 .       0/       0
  26  JOBIPH22          1.15 .       0/     123 .      0.0/      1.3 .       0/       0
  - - - - - - - - - - - - - - - - - - - - - - - - - - - - - - - - - - - - - - - - - - -
   *  TOTAL            31.50 .     266/  395490 .      2.5/ 154764.9 .       0/      19
  - - - - - - - - - - - - - - - - - - - - - - - - - - - - - - - - - - - - - - - - - - -
 
  II. I/O Access Patterns
  - - - - - - - - - - - - - - - - - - - -
  Unit  Name               % of random
                         Write/Read calls
  - - - - - - - - - - - - - - - - - - - -
   1  RUNFILE             28.6/  11.1
   2  ANNI                 0.0/   0.0
   3  ONEINT               0.0/  99.3
   4  JOBIPH               0.0/  51.9
   5  JOBIPH01             0.0/  55.7
   6  JOBIPH02             0.0/  55.7
   7  JOBIPH03             0.0/  54.0
   8  JOBIPH04             0.0/  53.4
   9  JOBIPH05             0.0/  60.2
  10  JOBIPH06             0.0/  54.0
  11  JOBIPH07             0.0/  53.4
  12  JOBIPH08             0.0/  60.2
  13  JOBIPH09             0.0/  54.0
  14  JOBIPH10             0.0/  53.4
  15  JOBIPH11             0.0/  60.2
  16  JOBIPH12             0.0/  55.7
  17  JOBIPH13             0.0/  53.4
  18  JOBIPH14             0.0/  54.0
  19  JOBIPH15             0.0/  53.4
  20  JOBIPH16             0.0/  60.2
  21  JOBIPH17             0.0/  54.0
  22  JOBIPH18             0.0/  53.4
  23  JOBIPH19             0.0/  60.2
  24  JOBIPH20             0.0/  54.0
  25  JOBIPH21             0.0/  53.4
  26  JOBIPH22             0.0/  60.2
  - - - - - - - - - - - - - - - - - - - -
--
--- Stop Module: rassi at Thu Apr 17 11:03:36 2025 /rc=_RC_ALL_IS_WELL_ ---
--- Module rassi spent 41 seconds ---

.##################.
.# Happy landing! #.
.##################.

    Timing: Wall=41.74 User=19.95 System=20.77
