   This run of MOLCAS is using the pymolcas driver

                             OPE
                             OPE          NMOL  CASOP  ENMOLC A   SO
                 OPE        NMOLC        AS  OP EN  MO LC     AS  OP
                OPENM       OL CA        SO  PE NM  OL CA     SOP EN
                OP EN      MO   LC       AS  OP ENMOL  CASO   PENMOL
                OP  EN     MO   LC       AS  OP EN     MO     LC ASO
               OP   E  NMOL  C  AS       OP  EN MO     LC     AS  OP
               OP  E   NMO   LC AS        OPEN  MO     LCASOP EN   M
               O  PEN   MO  LCA  SO
            OPE   NMO   L   CAS    OP
        OPENMOL  CASOP     ENMOL   CASOPE
     OPENMOLCA   SOPENMOLCASOPEN   MOLCASOPE
    OPENMOLCAS   OP           EN   MOL    CAS
    OPENMOLCAS       OP  ENM        O     LCA
    OPENMOLCAS    OPEN  MOLCASO     P  E  NMO
    OPENMOLCAS     OP               E  N  MOL
    OPENMOLCA   SO           PENM   O  L  CAS    OPEN    MO    LCAS
    OPENMOLCA   SOP           ENM   O  L  CAS   OP  EN  MOLC  AS   O
    OPENMOLCA   SOPE           NM      O  LCA   S      OP  EN MO
    OPENMOLC                AS         O  PEN   M      OL  CA  SOPE
    OPENMO        LCASOPE  NMOL        C  ASO   P      ENMOLC     AS
    OPE     NMO      LCA  SO     P     E   NM   OL  CA SO  PE N   MO
          OPENMOLCA            SOPE   NMO        LCAS  O    P  ENMO
     OPENMOLCASOPENMOLCASOPENMOLCASOPENMOLCA
        OPENMOLCASOPENMOLCASOPENMOLCASOPE
            OPENMOLCASOPENMOLCASOPENM
               OPENMOLCASOPENMOLCA        version: 25.02
                   OPENMOLCASO
                       OPE                tag: 92-gf4b470f0a

 OpenMolcas is free software; you can redistribute it and/or modify it
 under the terms of the GNU Lesser General Public License version 2.1.
 OpenMolcas is distributed in the hope that it will be useful, but it
 is provided "as is" and without any express or implied warranties.
 For more details see the full text of the license in the file
 LICENSE or in <http://www.gnu.org/licenses/>.

                 Copyright (C) The OpenMolcas Authors
           For the author list and the recommended citation,
                   consult the file CONTRIBUTORS.md

           *************************************************
           * pymolcas version py2.29                       *
           *   build 2ba4516c4d154a59cba941070ba63e2c      *
           *   (after the EMIL interpreter by V. Veryazov) *
           *************************************************

configuration info
------------------
Host name: iftia91.univ.gda.pl (Linux)
C Compiler ID: GNU
C flags: -std=gnu99
Fortran Compiler ID: GNU
Fortran flags: -cpp -fdefault-integer-8 -fmax-stack-var-size=1048576
Definitions: _MOLCAS_;_I8_;_LINUX_
Parallel: OFF (GA=OFF)


   --------------------------------------------------------------------
  |
  |           Project: O2
  |    Submitted from: /scratch/tecumseh/WorkSpace/O2.1.3000
  |      Scratch area: /scratch/tecumseh/WorkSpace/O2.1.3000
  |   Save outputs to: WORKDIR
  |            Molcas: /home/tecumseh/program/OpenMolcas/build
  |
  | Scratch area is NOT empty
  |
  |    MOLCAS_DRIVER = /home/tecumseh/program/OpenMolcas/build/pymolcas
  |    MOLCAS_NPROCS = 1
  |    MOLCAS_SOURCE = /home/tecumseh/program/OpenMolcas/OpenMolcas
  | MOLCAS_STRUCTURE = 0
  |
   --------------------------------------------------------------------

++ ---------   Input file   ---------

>>> COPY $dir/vectors/$Project.$R.1Ag-12S.JobIph $WorkDir/JOBIPH

>>> COPY $dir/vectors/$Project.$R.3Ag-3S.JobIph $WorkDir/JOBIPH01

>>> COPY $dir/vectors/$Project.$R.5Ag-3S.JobIph $WorkDir/JOBIPH02

>>> COPY $dir/vectors/$Project.$R.1B3u-5S.JobIph $WorkDir/JOBIPH03

>>> COPY $dir/vectors/$Project.$R.3B3u-6S.JobIph $WorkDir/JOBIPH04

>>> COPY $dir/vectors/$Project.$R.5B3u-1S.JobIph $WorkDir/JOBIPH05

>>> COPY $dir/vectors/$Project.$R.1B2u-5S.JobIph $WorkDir/JOBIPH06

>>> COPY $dir/vectors/$Project.$R.3B2u-6S.JobIph $WorkDir/JOBIPH07

>>> COPY $dir/vectors/$Project.$R.5B2u-1S.JobIph $WorkDir/JOBIPH08

>>> COPY $dir/vectors/$Project.$R.1B1g-5S.JobIph $WorkDir/JOBIPH09

>>> COPY $dir/vectors/$Project.$R.3B1g-6S.JobIph $WorkDir/JOBIPH10

>>> COPY $dir/vectors/$Project.$R.5B1g-1S.JobIph $WorkDir/JOBIPH11

>>> COPY $dir/vectors/$Project.$R.1B1u-3S.JobIph $WorkDir/JOBIPH12

>>> COPY $dir/vectors/$Project.$R.3B1u-6S.JobIph $WorkDir/JOBIPH13

>>> COPY $dir/vectors/$Project.$R.1B2g-5S.JobIph $WorkDir/JOBIPH14

>>> COPY $dir/vectors/$Project.$R.3B2g-6S.JobIph $WorkDir/JOBIPH15

>>> COPY $dir/vectors/$Project.$R.5B2g-1S.JobIph $WorkDir/JOBIPH16

>>> COPY $dir/vectors/$Project.$R.1B3g-5S.JobIph $WorkDir/JOBIPH17

>>> COPY $dir/vectors/$Project.$R.3B3g-6S.JobIph $WorkDir/JOBIPH18

>>> COPY $dir/vectors/$Project.$R.5B3g-1S.JobIph $WorkDir/JOBIPH19

>>> COPY $dir/vectors/$Project.$R.1Au-5S.JobIph $WorkDir/JOBIPH20

>>> COPY $dir/vectors/$Project.$R.3Au-6S.JobIph $WorkDir/JOBIPH21

>>> COPY $dir/vectors/$Project.$R.5Au-1S.JobIph $WorkDir/JOBIPH22

&RASSI

OMEGa
NROF=23 12 3 3 5 6 1 5 6 1 5 6 1 3 6 5 6 1 5 6 1 5 6 1
1 2 3 4 5 6 7 8 9 10 11 12
1 2 3
1 2 3
1 2 3 4 5
1 2 3 4 5 6
1
1 2 3 4 5
1 2 3 4 5 6
1
1 2 3 4 5
1 2 3 4 5 6
1
1 2 3
1 2 3 4 5 6
1 2 3 4 5
1 2 3 4 5 6
1
1 2 3 4 5
1 2 3 4 5 6
1
1 2 3 4 5
1 2 3 4 5 6
1
EJOB

-- ----------------------------------

>>> COPY /home/tecumseh/project/molecule/O2/OpenMolcas/vectors/O2.1.3000.1Ag-12S.JobIph /scratch/tecumseh/WorkSpace/O2.1.3000/JOBIPH

>>> COPY /home/tecumseh/project/molecule/O2/OpenMolcas/vectors/O2.1.3000.3Ag-3S.JobIph /scratch/tecumseh/WorkSpace/O2.1.3000/JOBIPH01

>>> COPY /home/tecumseh/project/molecule/O2/OpenMolcas/vectors/O2.1.3000.5Ag-3S.JobIph /scratch/tecumseh/WorkSpace/O2.1.3000/JOBIPH02

>>> COPY /home/tecumseh/project/molecule/O2/OpenMolcas/vectors/O2.1.3000.1B3u-5S.JobIph /scratch/tecumseh/WorkSpace/O2.1.3000/JOBIPH03

>>> COPY /home/tecumseh/project/molecule/O2/OpenMolcas/vectors/O2.1.3000.3B3u-6S.JobIph /scratch/tecumseh/WorkSpace/O2.1.3000/JOBIPH04

>>> COPY /home/tecumseh/project/molecule/O2/OpenMolcas/vectors/O2.1.3000.5B3u-1S.JobIph /scratch/tecumseh/WorkSpace/O2.1.3000/JOBIPH05

>>> COPY /home/tecumseh/project/molecule/O2/OpenMolcas/vectors/O2.1.3000.1B2u-5S.JobIph /scratch/tecumseh/WorkSpace/O2.1.3000/JOBIPH06

>>> COPY /home/tecumseh/project/molecule/O2/OpenMolcas/vectors/O2.1.3000.3B2u-6S.JobIph /scratch/tecumseh/WorkSpace/O2.1.3000/JOBIPH07

>>> COPY /home/tecumseh/project/molecule/O2/OpenMolcas/vectors/O2.1.3000.5B2u-1S.JobIph /scratch/tecumseh/WorkSpace/O2.1.3000/JOBIPH08

>>> COPY /home/tecumseh/project/molecule/O2/OpenMolcas/vectors/O2.1.3000.1B1g-5S.JobIph /scratch/tecumseh/WorkSpace/O2.1.3000/JOBIPH09

>>> COPY /home/tecumseh/project/molecule/O2/OpenMolcas/vectors/O2.1.3000.3B1g-6S.JobIph /scratch/tecumseh/WorkSpace/O2.1.3000/JOBIPH10

>>> COPY /home/tecumseh/project/molecule/O2/OpenMolcas/vectors/O2.1.3000.5B1g-1S.JobIph /scratch/tecumseh/WorkSpace/O2.1.3000/JOBIPH11

>>> COPY /home/tecumseh/project/molecule/O2/OpenMolcas/vectors/O2.1.3000.1B1u-3S.JobIph /scratch/tecumseh/WorkSpace/O2.1.3000/JOBIPH12

>>> COPY /home/tecumseh/project/molecule/O2/OpenMolcas/vectors/O2.1.3000.3B1u-6S.JobIph /scratch/tecumseh/WorkSpace/O2.1.3000/JOBIPH13

>>> COPY /home/tecumseh/project/molecule/O2/OpenMolcas/vectors/O2.1.3000.1B2g-5S.JobIph /scratch/tecumseh/WorkSpace/O2.1.3000/JOBIPH14

>>> COPY /home/tecumseh/project/molecule/O2/OpenMolcas/vectors/O2.1.3000.3B2g-6S.JobIph /scratch/tecumseh/WorkSpace/O2.1.3000/JOBIPH15

>>> COPY /home/tecumseh/project/molecule/O2/OpenMolcas/vectors/O2.1.3000.5B2g-1S.JobIph /scratch/tecumseh/WorkSpace/O2.1.3000/JOBIPH16

>>> COPY /home/tecumseh/project/molecule/O2/OpenMolcas/vectors/O2.1.3000.1B3g-5S.JobIph /scratch/tecumseh/WorkSpace/O2.1.3000/JOBIPH17

>>> COPY /home/tecumseh/project/molecule/O2/OpenMolcas/vectors/O2.1.3000.3B3g-6S.JobIph /scratch/tecumseh/WorkSpace/O2.1.3000/JOBIPH18

>>> COPY /home/tecumseh/project/molecule/O2/OpenMolcas/vectors/O2.1.3000.5B3g-1S.JobIph /scratch/tecumseh/WorkSpace/O2.1.3000/JOBIPH19

>>> COPY /home/tecumseh/project/molecule/O2/OpenMolcas/vectors/O2.1.3000.1Au-5S.JobIph /scratch/tecumseh/WorkSpace/O2.1.3000/JOBIPH20

>>> COPY /home/tecumseh/project/molecule/O2/OpenMolcas/vectors/O2.1.3000.3Au-6S.JobIph /scratch/tecumseh/WorkSpace/O2.1.3000/JOBIPH21

>>> COPY /home/tecumseh/project/molecule/O2/OpenMolcas/vectors/O2.1.3000.5Au-1S.JobIph /scratch/tecumseh/WorkSpace/O2.1.3000/JOBIPH22

--- Start Module: rassi at Thu Apr 17 11:03:46 2025 ---

()()()()()()()()()()()()()()()()()()()()()()()()()()()()()()()()()()()()()()()()()()()()()()()()()()

                                               &RASSI

                                   only a single process is used
                       available to each process: 2.0 GB of memory, 1 thread?
                                            pid: 299044
()()()()()()()()()()()()()()()()()()()()()()()()()()()()()()()()()()()()()()()()()()()()()()()()()()


      ********************************************************************************
      *                                                                              *
      *                             General data section                             *
      *                                                                              *
      ********************************************************************************

   Specific data for JOBIPH file JOBIPH
   -------------------------------------

   Header from SEWARD:
                            O2, D2h symmetry, aug-cc-pVTZ                      
        Integrals generated by Gateway/Seward, Wed Apr 16 15:47:52 2025        

   CASSCF title (first line only):
       O2, 1Ag 12S                                                             

  STATE IRREP:                1
  SPIN MULTIPLICITY:          1
  ACTIVE ELECTRONS:          12
  MAX RAS1 HOLES:             0
  MAX RAS3 ELECTRONS:         0
  NR OF CONFIG:              60

   Specific data for JOBIPH file JOBIPH01
   -------------------------------------

   Header from SEWARD:
                            O2, D2h symmetry, aug-cc-pVTZ                      
        Integrals generated by Gateway/Seward, Wed Apr 16 15:47:52 2025        

   CASSCF title (first line only):
       O2, 3Ag  3S                                                             

  STATE IRREP:                1
  SPIN MULTIPLICITY:          3
  ACTIVE ELECTRONS:          12
  MAX RAS1 HOLES:             0
  MAX RAS3 ELECTRONS:         0
  NR OF CONFIG:              42

   Specific data for JOBIPH file JOBIPH02
   -------------------------------------

   Header from SEWARD:
                            O2, D2h symmetry, aug-cc-pVTZ                      
        Integrals generated by Gateway/Seward, Wed Apr 16 15:47:52 2025        

   CASSCF title (first line only):
       O2, 5Ag  3S                                                             

  STATE IRREP:                1
  SPIN MULTIPLICITY:          5
  ACTIVE ELECTRONS:          12
  MAX RAS1 HOLES:             0
  MAX RAS3 ELECTRONS:         0
  NR OF CONFIG:              10

   Specific data for JOBIPH file JOBIPH03
   -------------------------------------

   Header from SEWARD:
                            O2, D2h symmetry, aug-cc-pVTZ                      
        Integrals generated by Gateway/Seward, Thu Apr 17 11:03:36 2025        

   CASSCF title (first line only):
       O2, 1B3u 5S                                                             

  STATE IRREP:                2
  SPIN MULTIPLICITY:          1
  ACTIVE ELECTRONS:          12
  MAX RAS1 HOLES:             0
  MAX RAS3 ELECTRONS:         0
  NR OF CONFIG:              40

   Specific data for JOBIPH file JOBIPH04
   -------------------------------------

   Header from SEWARD:
                            O2, D2h symmetry, aug-cc-pVTZ                      
        Integrals generated by Gateway/Seward, Wed Apr 16 15:47:52 2025        

   CASSCF title (first line only):
       O2, 3B3u 6S                                                             

  STATE IRREP:                2
  SPIN MULTIPLICITY:          3
  ACTIVE ELECTRONS:          12
  MAX RAS1 HOLES:             0
  MAX RAS3 ELECTRONS:         0
  NR OF CONFIG:              48

   Specific data for JOBIPH file JOBIPH05
   -------------------------------------

   Header from SEWARD:
                            O2, D2h symmetry, aug-cc-pVTZ                      
        Integrals generated by Gateway/Seward, Wed Apr 16 15:47:52 2025        

   CASSCF title (first line only):
       O2, 5B3u 1S                                                             

  STATE IRREP:                2
  SPIN MULTIPLICITY:          5
  ACTIVE ELECTRONS:          12
  MAX RAS1 HOLES:             0
  MAX RAS3 ELECTRONS:         0
  NR OF CONFIG:               8

   Specific data for JOBIPH file JOBIPH06
   -------------------------------------

   Header from SEWARD:
                            O2, D2h symmetry, aug-cc-pVTZ                      
        Integrals generated by Gateway/Seward, Thu Apr 17 11:03:36 2025        

   CASSCF title (first line only):
       O2, 1B2u 5S                                                             

  STATE IRREP:                3
  SPIN MULTIPLICITY:          1
  ACTIVE ELECTRONS:          12
  MAX RAS1 HOLES:             0
  MAX RAS3 ELECTRONS:         0
  NR OF CONFIG:              40

   Specific data for JOBIPH file JOBIPH07
   -------------------------------------

   Header from SEWARD:
                            O2, D2h symmetry, aug-cc-pVTZ                      
        Integrals generated by Gateway/Seward, Wed Apr 16 15:47:52 2025        

   CASSCF title (first line only):
       O2, 3B2u 6S                                                             

  STATE IRREP:                3
  SPIN MULTIPLICITY:          3
  ACTIVE ELECTRONS:          12
  MAX RAS1 HOLES:             0
  MAX RAS3 ELECTRONS:         0
  NR OF CONFIG:              48

   Specific data for JOBIPH file JOBIPH08
   -------------------------------------

   Header from SEWARD:
                            O2, D2h symmetry, aug-cc-pVTZ                      
        Integrals generated by Gateway/Seward, Wed Apr 16 15:47:52 2025        

   CASSCF title (first line only):
       O2, 5B2u 1S                                                             

  STATE IRREP:                3
  SPIN MULTIPLICITY:          5
  ACTIVE ELECTRONS:          12
  MAX RAS1 HOLES:             0
  MAX RAS3 ELECTRONS:         0
  NR OF CONFIG:               8

   Specific data for JOBIPH file JOBIPH09
   -------------------------------------

   Header from SEWARD:
                            O2, D2h symmetry, aug-cc-pVTZ                      
        Integrals generated by Gateway/Seward, Wed Apr 16 15:47:52 2025        

   CASSCF title (first line only):
       O2, 1B1g 5S                                                             

  STATE IRREP:                4
  SPIN MULTIPLICITY:          1
  ACTIVE ELECTRONS:          12
  MAX RAS1 HOLES:             0
  MAX RAS3 ELECTRONS:         0
  NR OF CONFIG:              36

   Specific data for JOBIPH file JOBIPH10
   -------------------------------------

   Header from SEWARD:
                            O2, D2h symmetry, aug-cc-pVTZ                      
        Integrals generated by Gateway/Seward, Wed Apr 16 15:47:52 2025        

   CASSCF title (first line only):
       O2, 3B1g 6S                                                             

  STATE IRREP:                4
  SPIN MULTIPLICITY:          3
  ACTIVE ELECTRONS:          12
  MAX RAS1 HOLES:             0
  MAX RAS3 ELECTRONS:         0
  NR OF CONFIG:              48

   Specific data for JOBIPH file JOBIPH11
   -------------------------------------

   Header from SEWARD:
                            O2, D2h symmetry, aug-cc-pVTZ                      
        Integrals generated by Gateway/Seward, Wed Apr 16 15:47:52 2025        

   CASSCF title (first line only):
       O2, 5B1g 1S                                                             

  STATE IRREP:                4
  SPIN MULTIPLICITY:          5
  ACTIVE ELECTRONS:          12
  MAX RAS1 HOLES:             0
  MAX RAS3 ELECTRONS:         0
  NR OF CONFIG:              12

   Specific data for JOBIPH file JOBIPH12
   -------------------------------------

   Header from SEWARD:
                            O2, D2h symmetry, aug-cc-pVTZ                      
        Integrals generated by Gateway/Seward, Thu Apr 17 11:03:36 2025        

   CASSCF title (first line only):
       O2, 1B1u 3S                                                             

  STATE IRREP:                5
  SPIN MULTIPLICITY:          1
  ACTIVE ELECTRONS:          12
  MAX RAS1 HOLES:             0
  MAX RAS3 ELECTRONS:         0
  NR OF CONFIG:              44

   Specific data for JOBIPH file JOBIPH13
   -------------------------------------

   Header from SEWARD:
                            O2, D2h symmetry, aug-cc-pVTZ                      
        Integrals generated by Gateway/Seward, Wed Apr 16 15:47:52 2025        

   CASSCF title (first line only):
       O2, 3B1u 6S                                                             

  STATE IRREP:                5
  SPIN MULTIPLICITY:          3
  ACTIVE ELECTRONS:          12
  MAX RAS1 HOLES:             0
  MAX RAS3 ELECTRONS:         0
  NR OF CONFIG:              48

   Specific data for JOBIPH file JOBIPH14
   -------------------------------------

   Header from SEWARD:
                            O2, D2h symmetry, aug-cc-pVTZ                      
        Integrals generated by Gateway/Seward, Wed Apr 16 15:47:52 2025        

   CASSCF title (first line only):
       O2, 1B2g 5S                                                             

  STATE IRREP:                6
  SPIN MULTIPLICITY:          1
  ACTIVE ELECTRONS:          12
  MAX RAS1 HOLES:             0
  MAX RAS3 ELECTRONS:         0
  NR OF CONFIG:              40

   Specific data for JOBIPH file JOBIPH15
   -------------------------------------

   Header from SEWARD:
                            O2, D2h symmetry, aug-cc-pVTZ                      
        Integrals generated by Gateway/Seward, Wed Apr 16 15:47:52 2025        

   CASSCF title (first line only):
       O2, 3B2g 6S                                                             

  STATE IRREP:                6
  SPIN MULTIPLICITY:          3
  ACTIVE ELECTRONS:          12
  MAX RAS1 HOLES:             0
  MAX RAS3 ELECTRONS:         0
  NR OF CONFIG:              48

   Specific data for JOBIPH file JOBIPH16
   -------------------------------------

   Header from SEWARD:
                            O2, D2h symmetry, aug-cc-pVTZ                      
        Integrals generated by Gateway/Seward, Wed Apr 16 15:47:52 2025        

   CASSCF title (first line only):
       O2, 5B2g 1S                                                             

  STATE IRREP:                6
  SPIN MULTIPLICITY:          5
  ACTIVE ELECTRONS:          12
  MAX RAS1 HOLES:             0
  MAX RAS3 ELECTRONS:         0
  NR OF CONFIG:               8

   Specific data for JOBIPH file JOBIPH17
   -------------------------------------

   Header from SEWARD:
                            O2, D2h symmetry, aug-cc-pVTZ                      
        Integrals generated by Gateway/Seward, Wed Apr 16 15:47:52 2025        

   CASSCF title (first line only):
       O2, 1B3g 5S                                                             

  STATE IRREP:                7
  SPIN MULTIPLICITY:          1
  ACTIVE ELECTRONS:          12
  MAX RAS1 HOLES:             0
  MAX RAS3 ELECTRONS:         0
  NR OF CONFIG:              40

   Specific data for JOBIPH file JOBIPH18
   -------------------------------------

   Header from SEWARD:
                            O2, D2h symmetry, aug-cc-pVTZ                      
        Integrals generated by Gateway/Seward, Wed Apr 16 15:47:52 2025        

   CASSCF title (first line only):
       O2, 3B3g 6S                                                             

  STATE IRREP:                7
  SPIN MULTIPLICITY:          3
  ACTIVE ELECTRONS:          12
  MAX RAS1 HOLES:             0
  MAX RAS3 ELECTRONS:         0
  NR OF CONFIG:              48

   Specific data for JOBIPH file JOBIPH19
   -------------------------------------

   Header from SEWARD:
                            O2, D2h symmetry, aug-cc-pVTZ                      
        Integrals generated by Gateway/Seward, Wed Apr 16 15:47:52 2025        

   CASSCF title (first line only):
       O2, 5B3g 1S                                                             

  STATE IRREP:                7
  SPIN MULTIPLICITY:          5
  ACTIVE ELECTRONS:          12
  MAX RAS1 HOLES:             0
  MAX RAS3 ELECTRONS:         0
  NR OF CONFIG:               8

   Specific data for JOBIPH file JOBIPH20
   -------------------------------------

   Header from SEWARD:
                            O2, D2h symmetry, aug-cc-pVTZ                      
        Integrals generated by Gateway/Seward, Thu Apr 17 11:03:36 2025        

   CASSCF title (first line only):
       O2, 1Au 5S                                                              

  STATE IRREP:                8
  SPIN MULTIPLICITY:          1
  ACTIVE ELECTRONS:          12
  MAX RAS1 HOLES:             0
  MAX RAS3 ELECTRONS:         0
  NR OF CONFIG:              36

   Specific data for JOBIPH file JOBIPH21
   -------------------------------------

   Header from SEWARD:
                            O2, D2h symmetry, aug-cc-pVTZ                      
        Integrals generated by Gateway/Seward, Wed Apr 16 15:47:52 2025        

   CASSCF title (first line only):
       O2, 3Au 6S                                                              

  STATE IRREP:                8
  SPIN MULTIPLICITY:          3
  ACTIVE ELECTRONS:          12
  MAX RAS1 HOLES:             0
  MAX RAS3 ELECTRONS:         0
  NR OF CONFIG:              48

   Specific data for JOBIPH file JOBIPH22
   -------------------------------------

   Header from SEWARD:
                            O2, D2h symmetry, aug-cc-pVTZ                      
        Integrals generated by Gateway/Seward, Wed Apr 16 15:47:52 2025        

   CASSCF title (first line only):
       O2, 5Au 1S                                                              

  STATE IRREP:                8
  SPIN MULTIPLICITY:          5
  ACTIVE ELECTRONS:          12
  MAX RAS1 HOLES:             0
  MAX RAS3 ELECTRONS:         0
  NR OF CONFIG:              12
 ###############################################################################
 ###############################################################################
 ###                                                                         ###
 ###                                                                         ###
 ###    WARNING: EJOB used when HEFF is available, possible                  ###
 ###    extra interaction between states is ignored!                         ###
 ###                                                                         ###
 ###                                                                         ###
 ###############################################################################
 ###############################################################################

   The following data are common to all the states:
   ------------------------------------------------
   (note: frozen counts as inactive, deleted as secondary)

      Nr of irreps: 8

                 Total     No./Irrep 
      Irrep                  1   2   3   4   5   6   7   8
                            ag b3u b2u b1g b1u b2g b3g  au

      INACTIVE       2       1   0   0   0   1   0   0   0
      ACTIVE         8       2   1   1   0   2   1   1   0
      SECONDARY     82      16  10  10   5  16  10  10   5
      BASIS         92      19  11  11   5  19  11  11   5

      RAS1           0       0   0   0   0   0   0   0   0
      RAS2           8       2   1   1   0   2   1   1   0
      RAS3           0       0   0   0   0   0   0   0   0

        MATRIX ELEMENTS WILL BE COMPUTED FOR THE FOLLOWING ONE-ELECTRON OPERATORS, UNLESS ZERO BY SYMMETRY.
   (Herm=Hermitian, Anti=Antihermitian, Sing=Singlet operator, Trip=Triplet operator)
     MLTPL  0   1 (HERMSING)     MLTPL  1   1 (HERMSING)     MLTPL  1   2 (HERMSING)
     MLTPL  1   3 (HERMSING)     MLTPL  2   1 (HERMSING)     MLTPL  2   2 (HERMSING)
     MLTPL  2   3 (HERMSING)     MLTPL  2   4 (HERMSING)     MLTPL  2   5 (HERMSING)
     MLTPL  2   6 (HERMSING)     VELOCITY   1 (ANTISING)     VELOCITY   2 (ANTISING)
     VELOCITY   3 (ANTISING)     ANGMOM     1 (ANTISING)     ANGMOM     2 (ANTISING)
     ANGMOM     3 (ANTISING)     MLTPV  2   1 (ANTISING)     MLTPV  2   2 (ANTISING)
     MLTPV  2   3 (ANTISING)     MLTPV  2   4 (ANTISING)     MLTPV  2   5 (ANTISING)
     MLTPV  2   6 (ANTISING)

       EIGENSTATES OF A SPIN-FREE HAMILTONIAN WILL BE COMPUTED BASED ON:

  a Hamiltonian matrix assumed to be diagonal with energies read from the wavefunction file(s).

  Nr of states:                   99

   State:        1   2   3   4   5   6   7   8   9  10  11  12  13  14  15  16  17  18  19  20
  JobIph:        1   1   1   1   1   1   1   1   1   1   1   1   2   2   2   3   3   3   4   4
 Root nr:        1   2   3   4   5   6   7   8   9  10  11  12   1   2   3   1   2   3   1   2

   State:       21  22  23  24  25  26  27  28  29  30  31  32  33  34  35  36  37  38  39  40
  JobIph:        4   4   4   5   5   5   5   5   5   6   7   7   7   7   7   8   8   8   8   8
 Root nr:        3   4   5   1   2   3   4   5   6   1   1   2   3   4   5   1   2   3   4   5

   State:       41  42  43  44  45  46  47  48  49  50  51  52  53  54  55  56  57  58  59  60
  JobIph:        8   9  10  10  10  10  10  11  11  11  11  11  11  12  13  13  13  14  14  14
 Root nr:        6   1   1   2   3   4   5   1   2   3   4   5   6   1   1   2   3   1   2   3

   State:       61  62  63  64  65  66  67  68  69  70  71  72  73  74  75  76  77  78  79  80
  JobIph:       14  14  14  15  15  15  15  15  16  16  16  16  16  16  17  18  18  18  18  18
 Root nr:        4   5   6   1   2   3   4   5   1   2   3   4   5   6   1   1   2   3   4   5

   State:       81  82  83  84  85  86  87  88  89  90  91  92  93  94  95  96  97  98  99
  JobIph:       19  19  19  19  19  19  20  21  21  21  21  21  22  22  22  22  22  22  23
 Root nr:        1   2   3   4   5   6   1   1   2   3   4   5   1   2   3   4   5   6   1

  HAMILTONIAN MATRIX FOR THE ORIGINAL STATES:

  Diagonal, with energies
   -149.60943609   -149.60910439   -149.59013877   -149.44589524   -149.44575112
   -149.44396486   -149.44145295   -149.43104278   -149.43066856   -149.37434433
   -149.36914817   -149.30753201   -149.52387739   -149.52353428   -149.51021406
   -149.60559084   -149.60532415   -149.58978254   -149.60008355   -149.44421632
   -149.44030429   -149.43784032   -149.37442816   -149.60136320   -149.52583581
   -149.52237328   -149.52040444   -149.51834039   -149.45710950   -149.59963128
   -149.60008355   -149.44421632   -149.44030429   -149.43784032   -149.37442816
   -149.60136320   -149.52583581   -149.52237328   -149.52040444   -149.51834039
   -149.45710950   -149.59963128   -149.60943609   -149.44589524   -149.44145295
   -149.43066856   -149.36914817   -149.60866604   -149.52860549   -149.52387739
   -149.52182102   -149.51021406   -149.44924353   -149.60559084   -149.44332502
   -149.38188437   -149.37054461   -149.60820038   -149.60789656   -149.59001966
   -149.52737006   -149.52697359   -149.51053385   -149.60052885   -149.44649880
   -149.44213821   -149.44022016   -149.37858347   -149.59993426   -149.52709810
   -149.52246834   -149.52206094   -149.51919652   -149.45821213   -149.60293132
   -149.60052885   -149.44649880   -149.44213821   -149.44022016   -149.37858347
   -149.59993426   -149.52709810   -149.52246834   -149.52206094   -149.51919652
   -149.45821213   -149.60293132   -149.60961625   -149.44513237   -149.44332502
   -149.43104204   -149.37054461   -149.60820038   -149.52737006   -149.52502980
   -149.52244755   -149.51053385   -149.44958319   -149.60643081

      OVERLAP MATRIX FOR THE ORIGINAL STATES:

  Diagonal, with elements
      1.00000000      1.00000000      1.00000000      1.00000000      1.00000000
      1.00000000      1.00000000      1.00000000      1.00000000      1.00000000
      1.00000000      1.00000000      1.00000000      1.00000000      1.00000000
      1.00000000      1.00000000      1.00000000      1.00000000      1.00000000
      1.00000000      1.00000000      1.00000000      1.00000000      1.00000000
      1.00000000      1.00000000      1.00000000      1.00000000      1.00000000
      1.00000000      1.00000000      1.00000000      1.00000000      1.00000000
      1.00000000      1.00000000      1.00000000      1.00000000      1.00000000
      1.00000000      1.00000000      1.00000000      1.00000000      1.00000000
      1.00000000      1.00000000      1.00000000      1.00000000      1.00000000
      1.00000000      1.00000000      1.00000000      1.00000000      1.00000000
      1.00000000      1.00000000      1.00000000      1.00000000      1.00000000
      1.00000000      1.00000000      1.00000000      1.00000000      1.00000000
      1.00000000      1.00000000      1.00000000      1.00000000      1.00000000
      1.00000000      1.00000000      1.00000000      1.00000000      1.00000000
      1.00000000      1.00000000      1.00000000      1.00000000      1.00000000
      1.00000000      1.00000000      1.00000000      1.00000000      1.00000000
      1.00000000      1.00000000      1.00000000      1.00000000      1.00000000
      1.00000000      1.00000000      1.00000000      1.00000000      1.00000000
      1.00000000      1.00000000      1.00000000      1.00000000

::    RASSI State    1     Total energy:    -149.60943608983976
::    RASSI State    2     Total energy:    -149.60910438833844
::    RASSI State    3     Total energy:    -149.59013877045993
::    RASSI State    4     Total energy:    -149.44589524271930
::    RASSI State    5     Total energy:    -149.44575112006945
::    RASSI State    6     Total energy:    -149.44396486246603
::    RASSI State    7     Total energy:    -149.44145295471415
::    RASSI State    8     Total energy:    -149.43104278255777
::    RASSI State    9     Total energy:    -149.43066856217280
::    RASSI State   10     Total energy:    -149.37434432741807
::    RASSI State   11     Total energy:    -149.36914816890831
::    RASSI State   12     Total energy:    -149.30753200750547
::    RASSI State   13     Total energy:    -149.52387738822628
::    RASSI State   14     Total energy:    -149.52353427624294
::    RASSI State   15     Total energy:    -149.51021405994337
::    RASSI State   16     Total energy:    -149.60559084160286
::    RASSI State   17     Total energy:    -149.60532415017332
::    RASSI State   18     Total energy:    -149.58978253695199
::    RASSI State   19     Total energy:    -149.60008355410645
::    RASSI State   20     Total energy:    -149.44421631931007
::    RASSI State   21     Total energy:    -149.44030428744719
::    RASSI State   22     Total energy:    -149.43784031825959
::    RASSI State   23     Total energy:    -149.37442815863992
::    RASSI State   24     Total energy:    -149.60136319798826
::    RASSI State   25     Total energy:    -149.52583580511714
::    RASSI State   26     Total energy:    -149.52237327715562
::    RASSI State   27     Total energy:    -149.52040444206753
::    RASSI State   28     Total energy:    -149.51834038733725
::    RASSI State   29     Total energy:    -149.45710949843703
::    RASSI State   30     Total energy:    -149.59963128097388
::    RASSI State   31     Total energy:    -149.60008355410645
::    RASSI State   32     Total energy:    -149.44421631931007
::    RASSI State   33     Total energy:    -149.44030428744719
::    RASSI State   34     Total energy:    -149.43784031825953
::    RASSI State   35     Total energy:    -149.37442815863992
::    RASSI State   36     Total energy:    -149.60136319798818
::    RASSI State   37     Total energy:    -149.52583580511711
::    RASSI State   38     Total energy:    -149.52237327715557
::    RASSI State   39     Total energy:    -149.52040444206744
::    RASSI State   40     Total energy:    -149.51834038733728
::    RASSI State   41     Total energy:    -149.45710949843695
::    RASSI State   42     Total energy:    -149.59963128097382
::    RASSI State   43     Total energy:    -149.60943608983982
::    RASSI State   44     Total energy:    -149.44589524271922
::    RASSI State   45     Total energy:    -149.44145295471409
::    RASSI State   46     Total energy:    -149.43066856217277
::    RASSI State   47     Total energy:    -149.36914816890834
::    RASSI State   48     Total energy:    -149.60866604333879
::    RASSI State   49     Total energy:    -149.52860549403587
::    RASSI State   50     Total energy:    -149.52387738822605
::    RASSI State   51     Total energy:    -149.52182101632550
::    RASSI State   52     Total energy:    -149.51021405994334
::    RASSI State   53     Total energy:    -149.44924353372195
::    RASSI State   54     Total energy:    -149.60559084160280
::    RASSI State   55     Total energy:    -149.44332501522086
::    RASSI State   56     Total energy:    -149.38188436699278
::    RASSI State   57     Total energy:    -149.37054461029774
::    RASSI State   58     Total energy:    -149.60820037548089
::    RASSI State   59     Total energy:    -149.60789656087442
::    RASSI State   60     Total energy:    -149.59001965538778
::    RASSI State   61     Total energy:    -149.52737005686529
::    RASSI State   62     Total energy:    -149.52697358811369
::    RASSI State   63     Total energy:    -149.51053385218296
::    RASSI State   64     Total energy:    -149.60052884871942
::    RASSI State   65     Total energy:    -149.44649879524187
::    RASSI State   66     Total energy:    -149.44213820820042
::    RASSI State   67     Total energy:    -149.44022015959973
::    RASSI State   68     Total energy:    -149.37858346775968
::    RASSI State   69     Total energy:    -149.59993425703055
::    RASSI State   70     Total energy:    -149.52709809773415
::    RASSI State   71     Total energy:    -149.52246834270423
::    RASSI State   72     Total energy:    -149.52206094376959
::    RASSI State   73     Total energy:    -149.51919651837702
::    RASSI State   74     Total energy:    -149.45821213325829
::    RASSI State   75     Total energy:    -149.60293131883861
::    RASSI State   76     Total energy:    -149.60052884871936
::    RASSI State   77     Total energy:    -149.44649879524192
::    RASSI State   78     Total energy:    -149.44213820820039
::    RASSI State   79     Total energy:    -149.44022015959976
::    RASSI State   80     Total energy:    -149.37858346775968
::    RASSI State   81     Total energy:    -149.59993425703061
::    RASSI State   82     Total energy:    -149.52709809773407
::    RASSI State   83     Total energy:    -149.52246834270426
::    RASSI State   84     Total energy:    -149.52206094376962
::    RASSI State   85     Total energy:    -149.51919651837696
::    RASSI State   86     Total energy:    -149.45821213325823
::    RASSI State   87     Total energy:    -149.60293131883861
::    RASSI State   88     Total energy:    -149.60961624570814
::    RASSI State   89     Total energy:    -149.44513237477327
::    RASSI State   90     Total energy:    -149.44332501522086
::    RASSI State   91     Total energy:    -149.43104203907555
::    RASSI State   92     Total energy:    -149.37054461029771
::    RASSI State   93     Total energy:    -149.60820037548089
::    RASSI State   94     Total energy:    -149.52737005686538
::    RASSI State   95     Total energy:    -149.52502979525889
::    RASSI State   96     Total energy:    -149.52244755130317
::    RASSI State   97     Total energy:    -149.51053385218313
::    RASSI State   98     Total energy:    -149.44958318763312
::    RASSI State   99     Total energy:    -149.60643080889466



      ****************************************************************************************************
      *                                                                                                  *
      *                                         Spin-free section                                        *
      *                                                                                                  *
      *                 Note: index according to input order, order according to energy.                 *
      *                                                                                                  *
      ****************************************************************************************************



  SPIN-FREE ENERGIES:
  (Shifted by EMIN (a.u.) =       -149.6096162457)

 SF State       Relative EMIN(au)   Rel lowest level(eV)    D:o, cm**(-1)      L_eff   Abs_M

    88             0.0000000000        0.0000000000              0.0000         1.0     0.0
    43             0.0001801559        0.0049022909             39.5396         2.0     2.0
     1             0.0001801559        0.0049022909             39.5396         2.0     2.0
     2             0.0005118574        0.0139283486            112.3397         0.9     0.0
    48             0.0009502024        0.0258563237            208.5453         1.0     0.0
    58             0.0014158702        0.0385277916            310.7476         2.0     2.0
    93             0.0014158702        0.0385277916            310.7476         2.0     2.0
    59             0.0017196848        0.0467950082            377.4272         0.9     0.0
    99             0.0031854368        0.0866801515            699.1226         1.0     0.0
    16             0.0040254041        0.1095368259            883.4741         2.0     2.0
    54             0.0040254041        0.1095368259            883.4741         2.0     2.0
    17             0.0042920955        0.1167938694            942.0061         0.9     0.0
    75             0.0066849269        0.1819061271           1467.1719         2.0     1.0
    87             0.0066849269        0.1819061271           1467.1719         2.0     1.0
    24             0.0082530477        0.2245768692           1811.3346         2.0     1.0
    36             0.0082530477        0.2245768692           1811.3346         2.0     1.0
    64             0.0090873970        0.2472806694           1994.4531         2.0     1.0
    76             0.0090873970        0.2472806694           1994.4531         2.0     1.0
    19             0.0095326916        0.2593977531           2092.1840         1.0     1.0
    31             0.0095326916        0.2593977531           2092.1840         1.0     1.0
    81             0.0096819887        0.2634603335           2124.9509         1.0     1.0
    69             0.0096819887        0.2634603335           2124.9509         1.0     1.0
    30             0.0099849647        0.2717047320           2191.4465         1.0     1.0
    42             0.0099849647        0.2717047320           2191.4465         1.0     1.0
     3             0.0194774752        0.5300091021           4274.8117         1.6     0.0
    60             0.0195965903        0.5332503883           4300.9544         1.6     0.0
    18             0.0198337088        0.5397027097           4352.9959         1.6     0.0
    49             0.0810107517        2.2044148538          17779.8049         2.6     0.0
    94             0.0822461888        2.2380328119          18050.9520         2.6     2.0
    61             0.0822461888        2.2380328119          18050.9520         2.6     2.0
    70             0.0825181480        2.2454331968          18110.6401         2.3     1.0
    82             0.0825181480        2.2454331968          18110.6401         2.3     1.0
    62             0.0826426576        2.2488212762          18137.9668         2.0     0.0
    25             0.0837804406        2.2797819288          18387.6813         2.4     1.0
    37             0.0837804406        2.2797819288          18387.6813         2.4     1.0
    95             0.0845864504        2.3017145744          18564.5800         2.6     0.0
    13             0.0857388575        2.3330731672          18817.5041         2.6     2.0
    50             0.0857388575        2.3330731672          18817.5041         2.6     2.0
    14             0.0860819695        2.3424097199          18892.8085         2.0     0.0
    83             0.0871479030        2.3714152492          19126.7539         2.3     1.0
    71             0.0871479030        2.3714152492          19126.7539         2.3     1.0
    96             0.0871686944        2.3719810120          19131.3171         1.6     0.0
    26             0.0872429686        2.3740021145          19147.6184         2.2     1.0
    38             0.0872429686        2.3740021145          19147.6184         2.2     1.0
    84             0.0875553019        2.3825011389          19216.1676         3.0     3.0
    72             0.0875553019        2.3825011389          19216.1676         3.0     3.0
    51             0.0877952294        2.3890298973          19268.8256         1.6     0.0
    27             0.0892118036        2.4275768466          19579.7277         3.0     3.0
    39             0.0892118036        2.4275768466          19579.7277         3.0     3.0
    73             0.0904197273        2.4604461247          19844.8363         1.6     1.0
    85             0.0904197273        2.4604461247          19844.8363         1.6     1.0
    40             0.0912758584        2.4837426371          20032.7354         1.7     1.0
    28             0.0912758584        2.4837426371          20032.7354         1.7     1.0
    97             0.0990823935        2.6961692804          21746.0718         2.4     2.0
    63             0.0990823935        2.6961692804          21746.0718         2.4     2.0
    15             0.0994021858        2.7048712705          21816.2581         2.4     2.0
    52             0.0994021858        2.7048712705          21816.2581         2.4     2.0
    74             0.1514041124        4.1199157831          33229.3618         1.0     1.0
    86             0.1514041124        4.1199157831          33229.3618         1.0     1.0
    29             0.1525067473        4.1499200051          33471.3621         1.0     1.0
    41             0.1525067473        4.1499200051          33471.3621         1.0     1.0
    98             0.1600330581        4.3547213554          35123.1964         1.0     0.0
    53             0.1603727120        4.3639638092          35197.7418         1.0     0.0
    77             0.1631174505        4.4386519481          35800.1423         3.6     1.0
    65             0.1631174505        4.4386519481          35800.1423         3.6     1.0
     4             0.1637210030        4.4550754489          35932.6068         3.9     2.0
    44             0.1637210030        4.4550754489          35932.6068         3.9     2.0
     5             0.1638651256        4.4589972260          35964.2380         3.7     0.0
    89             0.1644838709        4.4758341432          36100.0369         2.6     0.0
    20             0.1653999264        4.5007612823          36301.0879         2.1     1.0
    32             0.1653999264        4.5007612823          36301.0879         2.1     1.0
     6             0.1656513832        4.5076037716          36356.2763         1.4     0.0
    55             0.1662912305        4.5250149021          36496.7065         3.0     2.0
    90             0.1662912305        4.5250149021          36496.7065         3.0     2.0
    66             0.1674780375        4.5573095663          36757.1805         4.0     3.0
    78             0.1674780375        4.5573095663          36757.1805         4.0     3.0
     7             0.1681632910        4.5759562636          36907.5763         2.0     2.0
    45             0.1681632910        4.5759562636          36907.5763         2.0     2.0
    21             0.1693119583        4.6072130923          37159.6796         2.3     1.0
    33             0.1693119583        4.6072130923          37159.6796         2.3     1.0
    79             0.1693960861        4.6095023277          37178.1436         2.5     1.0
    67             0.1693960861        4.6095023277          37178.1436         2.5     1.0
    22             0.1717759274        4.6742611096          37700.4584         3.0     3.0
    34             0.1717759274        4.6742611096          37700.4584         3.0     3.0
     8             0.1785734632        4.8592314791          39192.3450         1.7     0.0
    91             0.1785742066        4.8592517102          39192.5082         1.7     0.0
     9             0.1789476835        4.8694145345          39274.4769         4.0     4.0
    46             0.1789476835        4.8694145345          39274.4769         4.0     4.0
    56             0.2277318787        6.1969001122          49981.3701         2.0     0.0
    68             0.2310327779        6.2867221562          50705.8338         2.0     1.0
    80             0.2310327779        6.2867221562          50705.8338         2.0     1.0
    35             0.2351880871        6.3997938777          51617.8187         2.0     1.0
    23             0.2351880871        6.3997938777          51617.8187         2.0     1.0
    10             0.2352719183        6.4020750414          51636.2175         2.0     0.0
    57             0.2390716354        6.5054706116          52470.1591         2.0     2.0
    92             0.2390716354        6.5054706116          52470.1591         2.0     2.0
    47             0.2404680768        6.5434697176          52776.6425         2.0     2.0
    11             0.2404680768        6.5434697176          52776.6425         2.0     2.0
    12             0.3020842382        8.2201308846          66299.8268         0.1     0.0

++ Dipole transition strengths (spin-free states):
   -----------------------------------------------
     for osc. strength at least  1.00000000E-05

      From   To        Osc. strength     Einstein coefficients Ax, Ay, Az (sec-1)    Total A (sec-1)
     -----------------------------------------------------------------------------------------------
        70   29       1.66216461E-05  0.00000000E+00  0.00000000E+00  2.61601071E+03  2.61601071E+03
        82   41       1.66216461E-05  0.00000000E+00  0.00000000E+00  2.61601071E+03  2.61601071E+03
        25   74       1.52040466E-05  0.00000000E+00  0.00000000E+00  2.23391977E+03  2.23391977E+03
        37   86       1.52040466E-05  0.00000000E+00  0.00000000E+00  2.23391977E+03  2.23391977E+03
        96   53       2.65129388E-05  0.00000000E+00  0.00000000E+00  4.56497691E+03  4.56497691E+03
        51   98       2.65558844E-05  0.00000000E+00  0.00000000E+00  4.45247018E+03  4.45247018E+03
        77   35       2.36809709E-05  0.00000000E+00  0.00000000E+00  3.95209252E+03  3.95209252E+03
        65   23       2.36809709E-05  0.00000000E+00  0.00000000E+00  3.95209252E+03  3.95209252E+03
         5   56       4.00788972E-05  0.00000000E+00  0.00000000E+00  5.25262409E+03  5.25262409E+03
        20   68       2.26925585E-05  0.00000000E+00  0.00000000E+00  3.14077550E+03  3.14077550E+03
        32   80       2.26925585E-05  0.00000000E+00  0.00000000E+00  3.14077550E+03  3.14077550E+03
        55   11       2.64405872E-05  0.00000000E+00  0.00000000E+00  4.67432288E+03  4.67432288E+03
        90   47       2.64405872E-05  0.00000000E+00  0.00000000E+00  4.67432288E+03  4.67432288E+03
         7   57       1.80181005E-05  0.00000000E+00  0.00000000E+00  2.91081482E+03  2.91081482E+03
        45   92       1.80181005E-05  0.00000000E+00  0.00000000E+00  2.91081482E+03  2.91081482E+03
        56   12       6.39271324E-05  0.00000000E+00  0.00000000E+00  1.13549602E+04  1.13549602E+04
     -----------------------------------------------------------------------------------------------
--

++ Velocity transition strengths (spin-free states):
   -------------------------------------------------
     for osc. strength at least  1.00000000E-05

      From   To        Osc. strength     Einstein coefficients Ax, Ay, Az (sec-1)    Total A (sec-1)
     -----------------------------------------------------------------------------------------------
        88   64       2.96248294E-05  0.00000000E+00  7.86041984E+01  0.00000000E+00  7.86041984E+01
        88   76       2.96248294E-05  7.86041984E+01  0.00000000E+00  0.00000000E+00  7.86041984E+01
        43   19       7.21608452E-05  0.00000000E+00  2.02801539E+02  0.00000000E+00  2.02801539E+02
        43   31       7.21608452E-05  2.02801539E+02  0.00000000E+00  0.00000000E+00  2.02801539E+02
         1   19       7.21608452E-05  2.02801539E+02  0.00000000E+00  0.00000000E+00  2.02801539E+02
         1   31       7.21608452E-05  0.00000000E+00  2.02801539E+02  0.00000000E+00  2.02801539E+02
         2   19       2.15556763E-05  5.63593455E+01  0.00000000E+00  0.00000000E+00  5.63593455E+01
         2   31       2.15556763E-05  0.00000000E+00  5.63593455E+01  0.00000000E+00  5.63593455E+01
        48   24       4.56931783E-05  0.00000000E+00  7.82972410E+01  0.00000000E+00  7.82972410E+01
        48   36       4.56931783E-05  7.82972410E+01  0.00000000E+00  0.00000000E+00  7.82972410E+01
        58   81       7.39301075E-05  0.00000000E+00  1.62306334E+02  0.00000000E+00  1.62306334E+02
        58   69       7.39301075E-05  1.62306334E+02  0.00000000E+00  0.00000000E+00  1.62306334E+02
        93   81       7.39301075E-05  1.62306334E+02  0.00000000E+00  0.00000000E+00  1.62306334E+02
        93   69       7.39301075E-05  0.00000000E+00  1.62306334E+02  0.00000000E+00  1.62306334E+02
        59   81       2.67257315E-05  0.00000000E+00  5.44399824E+01  0.00000000E+00  5.44399824E+01
        59   69       2.67257315E-05  5.44399824E+01  0.00000000E+00  0.00000000E+00  5.44399824E+01
        99   75       1.43839087E-04  0.00000000E+00  5.65975103E+01  0.00000000E+00  5.65975103E+01
        99   87       1.43839087E-04  5.65975103E+01  0.00000000E+00  0.00000000E+00  5.65975103E+01
        16   30       8.20017513E-05  9.35755730E+01  0.00000000E+00  0.00000000E+00  9.35755730E+01
        16   42       8.20017513E-05  0.00000000E+00  9.35755730E+01  0.00000000E+00  9.35755730E+01
        54   30       8.20017513E-05  0.00000000E+00  9.35755730E+01  0.00000000E+00  9.35755730E+01
        54   42       8.20017513E-05  9.35755730E+01  0.00000000E+00  0.00000000E+00  9.35755730E+01
        17   30       4.50904384E-05  4.69523951E+01  0.00000000E+00  0.00000000E+00  4.69523951E+01
        17   42       4.50904384E-05  0.00000000E+00  4.69523952E+01  0.00000000E+00  4.69523952E+01
        75   30       8.32934280E-04  0.00000000E+00  0.00000000E+00  2.91446917E+02  2.91446917E+02
        87   42       8.32934280E-04  0.00000000E+00  0.00000000E+00  2.91446917E+02  2.91446917E+02
        24   69       1.22137891E-03  0.00000000E+00  0.00000000E+00  8.01290268E+01  8.01290268E+01
        36   81       1.22137891E-03  0.00000000E+00  0.00000000E+00  8.01290268E+01  8.01290268E+01
        64   19       2.91399816E-03  0.00000000E+00  0.00000000E+00  1.85650036E+01  1.85650036E+01
        76   31       2.91399816E-03  0.00000000E+00  0.00000000E+00  1.85650036E+01  1.85650036E+01
        19    3       8.26311355E-04  2.62570108E+03  0.00000000E+00  0.00000000E+00  2.62570108E+03
        31    3       8.26311355E-04  0.00000000E+00  2.62570108E+03  0.00000000E+00  2.62570108E+03
        81   60       8.24761955E-04  0.00000000E+00  2.60489391E+03  0.00000000E+00  2.60489391E+03
        69   60       8.24761955E-04  2.60489391E+03  0.00000000E+00  0.00000000E+00  2.60489391E+03
        30   18       8.22231995E-04  2.56251818E+03  0.00000000E+00  0.00000000E+00  2.56251818E+03
        42   18       8.22231995E-04  0.00000000E+00  2.56251818E+03  0.00000000E+00  2.56251818E+03
        49   25       3.05289914E-04  0.00000000E+00  7.52463306E+01  0.00000000E+00  7.52463306E+01
        49   37       3.05289914E-04  7.52463306E+01  0.00000000E+00  0.00000000E+00  7.52463306E+01
        49   96       8.13866426E-04  0.00000000E+00  0.00000000E+00  9.91597236E+02  9.91597236E+02
        49   26       1.07104746E-04  0.00000000E+00  1.33661002E+02  0.00000000E+00  1.33661002E+02
        49   38       1.07104746E-04  1.33661002E+02  0.00000000E+00  0.00000000E+00  1.33661002E+02
        49   40       4.13198429E-05  1.39893160E+02  0.00000000E+00  0.00000000E+00  1.39893160E+02
        49   28       4.13198429E-05  0.00000000E+00  1.39893160E+02  0.00000000E+00  1.39893160E+02
        49   29       2.95995593E-05  0.00000000E+00  4.86137994E+03  0.00000000E+00  4.86137994E+03
        49   41       2.95995593E-05  4.86137994E+03  0.00000000E+00  0.00000000E+00  4.86137994E+03
        49   98       6.36540917E-05  0.00000000E+00  0.00000000E+00  1.27713442E+04  1.27713442E+04
        94   70       1.20546576E-04  0.00000000E+00  2.86465978E-01  0.00000000E+00  2.86465978E-01
        94   82       1.20546576E-04  2.86465978E-01  0.00000000E+00  0.00000000E+00  2.86465978E-01
        94   84       6.72001586E-05  6.08590452E+01  0.00000000E+00  0.00000000E+00  6.08590452E+01
        94   72       6.72001586E-05  0.00000000E+00  6.08590452E+01  0.00000000E+00  6.08590452E+01
        94   73       2.40242864E-05  0.00000000E+00  5.15681562E+01  0.00000000E+00  5.15681562E+01
        94   85       2.40242864E-05  5.15681562E+01  0.00000000E+00  0.00000000E+00  5.15681562E+01
        94   74       1.21301449E-05  0.00000000E+00  1.86406375E+03  0.00000000E+00  1.86406375E+03
        94   86       1.21301449E-05  1.86406375E+03  0.00000000E+00  0.00000000E+00  1.86406375E+03
        61   70       1.20546576E-04  2.86465978E-01  0.00000000E+00  0.00000000E+00  2.86465978E-01
        61   82       1.20546576E-04  0.00000000E+00  2.86465978E-01  0.00000000E+00  2.86465978E-01
        61   84       6.72001586E-05  0.00000000E+00  6.08590452E+01  0.00000000E+00  6.08590452E+01
        61   72       6.72001586E-05  6.08590452E+01  0.00000000E+00  0.00000000E+00  6.08590452E+01
        61   73       2.40242864E-05  5.15681562E+01  0.00000000E+00  0.00000000E+00  5.15681562E+01
        61   85       2.40242864E-05  0.00000000E+00  5.15681562E+01  0.00000000E+00  5.15681562E+01
        61   74       1.21301449E-05  1.86406375E+03  0.00000000E+00  0.00000000E+00  1.86406375E+03
        61   86       1.21301449E-05  0.00000000E+00  1.86406375E+03  0.00000000E+00  1.86406375E+03
        70   62       1.74656151E-03  8.69962607E-01  0.00000000E+00  0.00000000E+00  8.69962607E-01
        70   25       1.56080816E-05  0.00000000E+00  0.00000000E+00  7.99062028E-01  7.99062028E-01
        70   95       3.07017549E-04  0.00000000E+00  4.21990027E+01  0.00000000E+00  4.21990027E+01
        70   96       5.78056851E-05  0.00000000E+00  4.01688506E+01  0.00000000E+00  4.01688506E+01
        70   26       1.50971847E-05  0.00000000E+00  0.00000000E+00  1.08287292E+01  1.08287292E+01
        70   28       1.89102731E-05  0.00000000E+00  0.00000000E+00  4.66004214E+01  4.66004214E+01
        70   98       2.20713829E-05  0.00000000E+00  4.26099400E+03  0.00000000E+00  4.26099400E+03
        82   62       1.74656151E-03  0.00000000E+00  8.69962606E-01  0.00000000E+00  8.69962606E-01
        82   37       1.56080816E-05  0.00000000E+00  0.00000000E+00  7.99062029E-01  7.99062029E-01
        82   95       3.07017549E-04  4.21990027E+01  0.00000000E+00  0.00000000E+00  4.21990027E+01
        82   96       5.78056851E-05  4.01688506E+01  0.00000000E+00  0.00000000E+00  4.01688506E+01
        82   38       1.50971847E-05  0.00000000E+00  0.00000000E+00  1.08287292E+01  1.08287292E+01
        82   40       1.89102731E-05  0.00000000E+00  0.00000000E+00  4.66004214E+01  4.66004214E+01
        82   98       2.20713829E-05  4.26099400E+03  0.00000000E+00  0.00000000E+00  4.26099400E+03
        62   83       9.11160832E-05  0.00000000E+00  5.94213933E+01  0.00000000E+00  5.94213933E+01
        62   71       9.11160832E-05  5.94213933E+01  0.00000000E+00  0.00000000E+00  5.94213933E+01
        25   14       2.21231353E-05  3.76522049E+00  0.00000000E+00  0.00000000E+00  3.76522049E+00
        25   71       3.05113395E-05  0.00000000E+00  0.00000000E+00  1.11167457E+01  1.11167457E+01
        25   51       9.67679908E-05  0.00000000E+00  5.01150321E+01  0.00000000E+00  5.01150321E+01
        25   73       6.81487688E-05  0.00000000E+00  0.00000000E+00  9.65187632E+01  9.65187632E+01
        25   74       1.98791785E-05  0.00000000E+00  0.00000000E+00  2.92083359E+03  2.92083359E+03
        25   53       1.85529702E-05  0.00000000E+00  3.49698868E+03  0.00000000E+00  3.49698868E+03
        37   14       2.21231353E-05  0.00000000E+00  3.76522049E+00  0.00000000E+00  3.76522049E+00
        37   83       3.05113395E-05  0.00000000E+00  0.00000000E+00  1.11167457E+01  1.11167457E+01
        37   51       9.67679908E-05  5.01150321E+01  0.00000000E+00  0.00000000E+00  5.01150321E+01
        37   85       6.81487688E-05  0.00000000E+00  0.00000000E+00  9.65187632E+01  9.65187632E+01
        37   86       1.98791785E-05  0.00000000E+00  0.00000000E+00  2.92083359E+03  2.92083359E+03
        37   53       1.85529702E-05  3.49698868E+03  0.00000000E+00  0.00000000E+00  3.49698868E+03
        95   83       7.40327836E-04  1.56065746E+02  0.00000000E+00  0.00000000E+00  1.56065746E+02
        95   71       7.40327836E-04  0.00000000E+00  1.56065746E+02  0.00000000E+00  1.56065746E+02
        95   51       1.18971942E-03  0.00000000E+00  0.00000000E+00  3.93581821E+02  3.93581821E+02
        95   73       3.25949565E-05  0.00000000E+00  3.56357965E+01  0.00000000E+00  3.56357965E+01
        95   85       3.25949565E-05  3.56357965E+01  0.00000000E+00  0.00000000E+00  3.56357965E+01
        95   74       4.79952762E-05  0.00000000E+00  6.88480952E+03  0.00000000E+00  6.88480952E+03
        95   86       4.79952762E-05  6.88480952E+03  0.00000000E+00  0.00000000E+00  6.88480952E+03
        95   53       4.26480496E-05  0.00000000E+00  0.00000000E+00  7.87029528E+03  7.87029528E+03
        13   26       1.12969579E-05  8.21168359E-01  0.00000000E+00  0.00000000E+00  8.21168359E-01
        13   38       1.12969578E-05  0.00000000E+00  8.21168357E-01  0.00000000E+00  8.21168357E-01
        13   27       3.73311382E-05  1.44669911E+01  0.00000000E+00  0.00000000E+00  1.44669911E+01
        13   39       3.73311382E-05  0.00000000E+00  1.44669911E+01  0.00000000E+00  1.44669911E+01
        13   40       3.19666506E-05  0.00000000E+00  3.14888793E+01  0.00000000E+00  3.14888793E+01
        13   28       3.19666506E-05  3.14888792E+01  0.00000000E+00  0.00000000E+00  3.14888792E+01
        50   26       1.12969578E-05  0.00000000E+00  8.21168358E-01  0.00000000E+00  8.21168358E-01
        50   38       1.12969578E-05  8.21168358E-01  0.00000000E+00  0.00000000E+00  8.21168358E-01
        50   27       3.73311382E-05  0.00000000E+00  1.44669911E+01  0.00000000E+00  1.44669911E+01
        50   39       3.73311382E-05  1.44669911E+01  0.00000000E+00  0.00000000E+00  1.44669911E+01
        50   40       3.19666506E-05  3.14888793E+01  0.00000000E+00  0.00000000E+00  3.14888793E+01
        50   28       3.19666506E-05  0.00000000E+00  3.14888793E+01  0.00000000E+00  3.14888793E+01
        14   26       9.93166985E-04  4.30127207E+01  0.00000000E+00  0.00000000E+00  4.30127207E+01
        14   38       9.93166985E-04  0.00000000E+00  4.30127207E+01  0.00000000E+00  4.30127207E+01
        83   96       3.18432572E-02  4.42278554E-01  0.00000000E+00  0.00000000E+00  4.42278554E-01
        83   38       2.68759913E-05  0.00000000E+00  0.00000000E+00  7.80407964E-03  7.80407964E-03
        83   40       7.50614509E-04  0.00000000E+00  0.00000000E+00  4.10958364E+02  4.10958364E+02
        83   98       1.69078640E-05  2.88587685E+03  0.00000000E+00  0.00000000E+00  2.88587685E+03
        71   96       3.18432573E-02  0.00000000E+00  4.42278554E-01  0.00000000E+00  4.42278554E-01
        71   26       2.68759913E-05  0.00000000E+00  0.00000000E+00  7.80407965E-03  7.80407965E-03
        71   28       7.50614509E-04  0.00000000E+00  0.00000000E+00  4.10958364E+02  4.10958364E+02
        71   98       1.69078640E-05  0.00000000E+00  2.88587685E+03  0.00000000E+00  2.88587685E+03
        96   51       2.01598634E-05  0.00000000E+00  0.00000000E+00  2.54266480E-01  2.54266480E-01
        96   73       1.09454554E-03  0.00000000E+00  3.71695629E+02  0.00000000E+00  3.71695629E+02
        96   85       1.09454554E-03  3.71695629E+02  0.00000000E+00  0.00000000E+00  3.71695629E+02
        96   74       3.99125772E-05  0.00000000E+00  5.29138991E+03  0.00000000E+00  5.29138991E+03
        96   86       3.99125772E-05  5.29138991E+03  0.00000000E+00  0.00000000E+00  5.29138991E+03
        26   51       7.94561380E-04  0.00000000E+00  7.78622264E+00  0.00000000E+00  7.78622264E+00
        26   73       7.84070685E-04  0.00000000E+00  0.00000000E+00  2.54234554E+02  2.54234554E+02
        26   53       1.79386822E-05  0.00000000E+00  3.08240371E+03  0.00000000E+00  3.08240371E+03
        38   51       7.94561380E-04  7.78622264E+00  0.00000000E+00  0.00000000E+00  7.78622264E+00
        38   85       7.84070685E-04  0.00000000E+00  0.00000000E+00  2.54234554E+02  2.54234554E+02
        38   53       1.79386822E-05  3.08240371E+03  0.00000000E+00  0.00000000E+00  3.08240371E+03
        84   97       4.25082413E-04  1.81477801E+03  0.00000000E+00  0.00000000E+00  1.81477801E+03
        84   63       4.25082413E-04  0.00000000E+00  1.81477801E+03  0.00000000E+00  1.81477801E+03
        72   97       4.25082413E-04  0.00000000E+00  1.81477801E+03  0.00000000E+00  1.81477801E+03
        72   63       4.25082413E-04  1.81477801E+03  0.00000000E+00  0.00000000E+00  1.81477801E+03
        51   40       1.06532541E-03  4.14675747E+02  0.00000000E+00  0.00000000E+00  4.14675747E+02
        51   28       1.06532541E-03  0.00000000E+00  4.14675747E+02  0.00000000E+00  4.14675747E+02
        51   29       4.38429598E-05  0.00000000E+00  5.89893922E+03  0.00000000E+00  5.89893922E+03
        51   41       4.38429598E-05  5.89893922E+03  0.00000000E+00  0.00000000E+00  5.89893922E+03
        27   15       4.30471093E-04  1.43626909E+03  0.00000000E+00  0.00000000E+00  1.43626909E+03
        27   52       4.30471093E-04  0.00000000E+00  1.43626909E+03  0.00000000E+00  1.43626909E+03
        39   15       4.30471093E-04  0.00000000E+00  1.43626909E+03  0.00000000E+00  1.43626909E+03
        39   52       4.30471093E-04  1.43626909E+03  0.00000000E+00  0.00000000E+00  1.43626909E+03
        73   97       2.56105251E-04  0.00000000E+00  6.17493692E+02  0.00000000E+00  6.17493692E+02
        73   63       2.56105251E-04  6.17493692E+02  0.00000000E+00  0.00000000E+00  6.17493692E+02
        73   98       1.03298058E-05  0.00000000E+00  1.60837705E+03  0.00000000E+00  1.60837705E+03
        85   97       2.56105251E-04  6.17493691E+02  0.00000000E+00  0.00000000E+00  6.17493691E+02
        85   63       2.56105251E-04  0.00000000E+00  6.17493692E+02  0.00000000E+00  6.17493692E+02
        85   98       1.03298058E-05  1.60837705E+03  0.00000000E+00  0.00000000E+00  1.60837705E+03
        40   15       2.65498711E-04  0.00000000E+00  5.63328768E+02  0.00000000E+00  5.63328768E+02
        40   52       2.65498711E-04  5.63328768E+02  0.00000000E+00  0.00000000E+00  5.63328768E+02
        40   53       1.12935760E-05  1.73244281E+03  0.00000000E+00  0.00000000E+00  1.73244281E+03
        28   15       2.65498711E-04  5.63328768E+02  0.00000000E+00  0.00000000E+00  5.63328768E+02
        28   52       2.65498711E-04  0.00000000E+00  5.63328768E+02  0.00000000E+00  5.63328768E+02
        28   53       1.12935760E-05  0.00000000E+00  1.73244281E+03  0.00000000E+00  1.73244281E+03
        74   29       7.70122240E-05  0.00000000E+00  0.00000000E+00  3.00838874E+00  3.00838874E+00
        74   98       1.09905182E-04  0.00000000E+00  2.62932649E+02  0.00000000E+00  2.62932649E+02
        86   41       7.70122240E-05  0.00000000E+00  0.00000000E+00  3.00838875E+00  3.00838875E+00
        86   98       1.09905182E-04  2.62932649E+02  0.00000000E+00  0.00000000E+00  2.62932649E+02
        29   53       1.28548308E-04  0.00000000E+00  2.55553148E+02  0.00000000E+00  2.55553148E+02
        41   53       1.28548308E-04  2.55553148E+02  0.00000000E+00  0.00000000E+00  2.55553148E+02
        98   53       3.89034480E-05  0.00000000E+00  0.00000000E+00  1.44202310E-01  1.44202310E-01
        77   89       3.70328084E-04  2.22160196E+01  0.00000000E+00  0.00000000E+00  2.22160196E+01
        77   32       7.74465341E-04  0.00000000E+00  0.00000000E+00  1.29635899E+02  1.29635899E+02
        77   55       1.88592155E-05  0.00000000E+00  6.10362931E+00  0.00000000E+00  6.10362931E+00
        77   90       1.88592155E-05  6.10362931E+00  0.00000000E+00  0.00000000E+00  6.10362931E+00
        77   33       6.11011643E-05  0.00000000E+00  0.00000000E+00  7.53310423E+01  7.53310423E+01
        77   56       1.01076095E-04  0.00000000E+00  1.35587093E+04  0.00000000E+00  1.35587093E+04
        65   89       3.70328084E-04  0.00000000E+00  2.22160196E+01  0.00000000E+00  2.22160196E+01
        65   20       7.74465341E-04  0.00000000E+00  0.00000000E+00  1.29635899E+02  1.29635899E+02
        65   55       1.88592155E-05  6.10362931E+00  0.00000000E+00  0.00000000E+00  6.10362931E+00
        65   90       1.88592155E-05  0.00000000E+00  6.10362931E+00  0.00000000E+00  6.10362931E+00
        65   21       6.11011643E-05  0.00000000E+00  0.00000000E+00  7.53310423E+01  7.53310423E+01
        65   56       1.01076095E-04  1.35587093E+04  0.00000000E+00  0.00000000E+00  1.35587093E+04
         4   20       5.07682749E-05  4.59795862E+00  0.00000000E+00  0.00000000E+00  4.59795862E+00
         4   32       5.07682750E-05  0.00000000E+00  4.59795863E+00  0.00000000E+00  4.59795863E+00
         4   55       1.59526953E-03  0.00000000E+00  0.00000000E+00  3.38600882E+02  3.38600882E+02
         4   21       2.80439634E-04  2.81658142E+02  0.00000000E+00  0.00000000E+00  2.81658142E+02
         4   33       2.80439634E-04  0.00000000E+00  2.81658142E+02  0.00000000E+00  2.81658142E+02
         4   22       1.51092673E-04  3.14975832E+02  0.00000000E+00  0.00000000E+00  3.14975832E+02
         4   34       1.51092673E-04  0.00000000E+00  3.14975832E+02  0.00000000E+00  3.14975832E+02
         4   57       5.37340468E-05  0.00000000E+00  0.00000000E+00  9.80244098E+03  9.80244098E+03
        44   20       5.07682749E-05  0.00000000E+00  4.59795862E+00  0.00000000E+00  4.59795862E+00
        44   32       5.07682749E-05  4.59795862E+00  0.00000000E+00  0.00000000E+00  4.59795862E+00
        44   90       1.59526953E-03  0.00000000E+00  0.00000000E+00  3.38600882E+02  3.38600882E+02
        44   21       2.80439634E-04  0.00000000E+00  2.81658142E+02  0.00000000E+00  2.81658142E+02
        44   33       2.80439634E-04  2.81658142E+02  0.00000000E+00  0.00000000E+00  2.81658142E+02
        44   22       1.51092673E-04  0.00000000E+00  3.14975832E+02  0.00000000E+00  3.14975832E+02
        44   34       1.51092673E-04  3.14975832E+02  0.00000000E+00  0.00000000E+00  3.14975832E+02
        44   92       5.37340468E-05  0.00000000E+00  0.00000000E+00  9.80244098E+03  9.80244098E+03
         5   20       6.82577993E-04  5.16615195E+01  0.00000000E+00  0.00000000E+00  5.16615195E+01
         5   32       6.82577993E-04  0.00000000E+00  5.16615195E+01  0.00000000E+00  5.16615195E+01
         5   21       9.71209702E-05  9.25788869E+01  0.00000000E+00  0.00000000E+00  9.25788869E+01
         5   33       9.71209703E-05  0.00000000E+00  9.25788870E+01  0.00000000E+00  9.25788870E+01
         5   56       1.22882267E-05  0.00000000E+00  0.00000000E+00  1.61045938E+03  1.61045938E+03
         5   35       9.49351954E-05  0.00000000E+00  1.55166108E+04  0.00000000E+00  1.55166108E+04
         5   23       9.49351954E-05  1.55166108E+04  0.00000000E+00  0.00000000E+00  1.55166108E+04
        89   79       2.62080993E-04  2.03189459E+02  0.00000000E+00  0.00000000E+00  2.03189459E+02
        89   67       2.62080993E-04  0.00000000E+00  2.03189459E+02  0.00000000E+00  2.03189459E+02
        89   68       1.08543733E-05  0.00000000E+00  1.54453407E+03  0.00000000E+00  1.54453407E+03
        89   80       1.08543733E-05  1.54453407E+03  0.00000000E+00  0.00000000E+00  1.54453407E+03
        20    7       1.04605860E-04  2.56651187E+01  0.00000000E+00  0.00000000E+00  2.56651187E+01
        20   45       1.04605860E-04  0.00000000E+00  2.56651187E+01  0.00000000E+00  2.56651187E+01
        20   67       1.19289719E-04  0.00000000E+00  0.00000000E+00  6.12067856E+01  6.12067856E+01
        20   68       1.01440045E-04  0.00000000E+00  0.00000000E+00  1.40398628E+04  1.40398628E+04
        20   10       4.29242217E-05  6.73316970E+03  0.00000000E+00  0.00000000E+00  6.73316970E+03
        20   47       1.03532871E-05  0.00000000E+00  1.87456528E+03  0.00000000E+00  1.87456528E+03
        20   11       1.03532871E-05  1.87456528E+03  0.00000000E+00  0.00000000E+00  1.87456528E+03
        32    7       1.04605860E-04  0.00000000E+00  2.56651187E+01  0.00000000E+00  2.56651187E+01
        32   45       1.04605860E-04  2.56651187E+01  0.00000000E+00  0.00000000E+00  2.56651187E+01
        32   79       1.19289719E-04  0.00000000E+00  0.00000000E+00  6.12067856E+01  6.12067856E+01
        32   80       1.01440045E-04  0.00000000E+00  0.00000000E+00  1.40398628E+04  1.40398628E+04
        32   10       4.29242217E-05  0.00000000E+00  6.73316970E+03  0.00000000E+00  6.73316970E+03
        32   47       1.03532871E-05  1.87456528E+03  0.00000000E+00  0.00000000E+00  1.87456528E+03
        32   11       1.03532871E-05  0.00000000E+00  1.87456528E+03  0.00000000E+00  1.87456528E+03
         6   21       2.50150256E-04  1.07698699E+02  0.00000000E+00  0.00000000E+00  1.07698699E+02
         6   33       2.50150256E-04  0.00000000E+00  1.07698699E+02  0.00000000E+00  1.07698699E+02
         6   56       1.65096568E-04  0.00000000E+00  0.00000000E+00  2.04436896E+04  2.04436896E+04
        55   66       1.29049726E-03  5.84020622E+01  0.00000000E+00  0.00000000E+00  5.84020622E+01
        55   78       1.29049726E-03  0.00000000E+00  5.84020622E+01  0.00000000E+00  5.84020622E+01
        55    7       1.05217847E-03  0.00000000E+00  0.00000000E+00  1.18478639E+02  1.18478639E+02
        55   79       1.59978954E-03  0.00000000E+00  4.95514713E+02  0.00000000E+00  4.95514713E+02
        55   67       1.59978954E-03  4.95514713E+02  0.00000000E+00  0.00000000E+00  4.95514713E+02
        55   68       3.75238097E-05  5.05340330E+03  0.00000000E+00  0.00000000E+00  5.05340330E+03
        55   80       3.75238097E-05  0.00000000E+00  5.05340330E+03  0.00000000E+00  5.05340330E+03
        90   66       1.29049726E-03  0.00000000E+00  5.84020622E+01  0.00000000E+00  5.84020622E+01
        90   78       1.29049726E-03  5.84020622E+01  0.00000000E+00  0.00000000E+00  5.84020622E+01
        90   45       1.05217847E-03  0.00000000E+00  0.00000000E+00  1.18478639E+02  1.18478639E+02
        90   79       1.59978954E-03  4.95514713E+02  0.00000000E+00  0.00000000E+00  4.95514713E+02
        90   67       1.59978954E-03  0.00000000E+00  4.95514713E+02  0.00000000E+00  4.95514713E+02
        90   68       3.75238097E-05  0.00000000E+00  5.05340330E+03  0.00000000E+00  5.05340330E+03
        90   80       3.75238097E-05  5.05340330E+03  0.00000000E+00  0.00000000E+00  5.05340330E+03
        66   22       8.28722868E-04  0.00000000E+00  0.00000000E+00  4.91847860E+02  4.91847860E+02
        66   57       7.18742449E-05  1.18367522E+04  0.00000000E+00  0.00000000E+00  1.18367522E+04
        66   92       7.18742449E-05  0.00000000E+00  1.18367522E+04  0.00000000E+00  1.18367522E+04
        78   34       8.28722868E-04  0.00000000E+00  0.00000000E+00  4.91847860E+02  4.91847860E+02
        78   57       7.18742449E-05  0.00000000E+00  1.18367522E+04  0.00000000E+00  1.18367522E+04
        78   92       7.18742449E-05  1.18367522E+04  0.00000000E+00  0.00000000E+00  1.18367522E+04
         7   21       2.64412181E-03  1.12093604E+02  0.00000000E+00  0.00000000E+00  1.12093604E+02
         7   33       2.64412181E-03  0.00000000E+00  1.12093604E+02  0.00000000E+00  1.12093604E+02
         7   22       1.34507003E-04  5.64032722E+01  0.00000000E+00  0.00000000E+00  5.64032722E+01
         7   34       1.34507003E-04  0.00000000E+00  5.64032722E+01  0.00000000E+00  5.64032722E+01
         7   35       2.92275885E-05  0.00000000E+00  4.21866334E+03  0.00000000E+00  4.21866334E+03
         7   23       2.92275885E-05  4.21866334E+03  0.00000000E+00  0.00000000E+00  4.21866334E+03
         7   57       1.00291135E-05  0.00000000E+00  0.00000000E+00  1.62019811E+03  1.62019811E+03
        45   21       2.64412181E-03  0.00000000E+00  1.12093604E+02  0.00000000E+00  1.12093604E+02
        45   33       2.64412181E-03  1.12093604E+02  0.00000000E+00  0.00000000E+00  1.12093604E+02
        45   22       1.34507003E-04  0.00000000E+00  5.64032722E+01  0.00000000E+00  5.64032722E+01
        45   34       1.34507003E-04  5.64032722E+01  0.00000000E+00  0.00000000E+00  5.64032722E+01
        45   35       2.92275885E-05  4.21866334E+03  0.00000000E+00  0.00000000E+00  4.21866334E+03
        45   23       2.92275885E-05  0.00000000E+00  4.21866334E+03  0.00000000E+00  4.21866334E+03
        45   92       1.00291135E-05  0.00000000E+00  0.00000000E+00  1.62019811E+03  1.62019811E+03
        21   67       9.01847762E-05  0.00000000E+00  0.00000000E+00  2.05080170E-02  2.05080170E-02
        21    8       1.07435219E-03  2.96087913E+03  0.00000000E+00  0.00000000E+00  2.96087913E+03
        21   68       1.10932176E-05  0.00000000E+00  0.00000000E+00  1.35778743E+03  1.35778743E+03
        33   79       9.01847763E-05  0.00000000E+00  0.00000000E+00  2.05080170E-02  2.05080170E-02
        33    8       1.07435219E-03  0.00000000E+00  2.96087913E+03  0.00000000E+00  2.96087913E+03
        33   80       1.10932176E-05  0.00000000E+00  0.00000000E+00  1.35778743E+03  1.35778743E+03
        79   91       1.09431066E-03  2.96182249E+03  0.00000000E+00  0.00000000E+00  2.96182249E+03
        67   91       1.09431066E-03  0.00000000E+00  2.96182249E+03  0.00000000E+00  2.96182249E+03
        22    9       3.93548808E-05  6.50370009E+01  0.00000000E+00  0.00000000E+00  6.50370009E+01
        22   46       3.93548808E-05  0.00000000E+00  6.50370009E+01  0.00000000E+00  6.50370009E+01
        22   47       3.31344780E-05  0.00000000E+00  5.02348636E+03  0.00000000E+00  5.02348636E+03
        22   11       3.31344780E-05  5.02348636E+03  0.00000000E+00  0.00000000E+00  5.02348636E+03
        34    9       3.93548808E-05  0.00000000E+00  6.50370009E+01  0.00000000E+00  6.50370009E+01
        34   46       3.93548808E-05  6.50370009E+01  0.00000000E+00  0.00000000E+00  6.50370009E+01
        34   47       3.31344780E-05  5.02348636E+03  0.00000000E+00  0.00000000E+00  5.02348636E+03
        34   11       3.31344780E-05  0.00000000E+00  5.02348636E+03  0.00000000E+00  5.02348636E+03
        56   68       1.93152685E-05  6.76201556E+00  0.00000000E+00  0.00000000E+00  6.76201556E+00
        56   80       1.93152685E-05  0.00000000E+00  6.76201556E+00  0.00000000E+00  6.76201556E+00
        56   10       1.12932684E-03  0.00000000E+00  0.00000000E+00  2.06289814E+03  2.06289814E+03
        68   23       3.44964539E-04  0.00000000E+00  0.00000000E+00  1.91378000E+02  1.91378000E+02
        80   35       3.44964539E-04  0.00000000E+00  0.00000000E+00  1.91378000E+02  1.91378000E+02
        35   10       6.01402065E-02  0.00000000E+00  1.35796129E+01  0.00000000E+00  1.35796129E+01
        35   47       2.34419770E-04  2.09976782E+02  0.00000000E+00  0.00000000E+00  2.09976782E+02
        35   11       2.34419770E-04  0.00000000E+00  2.09976782E+02  0.00000000E+00  2.09976782E+02
        23   10       6.01402065E-02  1.35796129E+01  0.00000000E+00  0.00000000E+00  1.35796129E+01
        23   47       2.34419770E-04  0.00000000E+00  2.09976782E+02  0.00000000E+00  2.09976782E+02
        23   11       2.34419770E-04  2.09976782E+02  0.00000000E+00  0.00000000E+00  2.09976782E+02
     -----------------------------------------------------------------------------------------------
--

++ Length and velocity gauge comparison (spin-free states):
   --------------------------------------------------------

 --------------------------------------------------
 A comparison between the dipole oscillator strengths in 
 length and velocity gauge will be performed

     All dipole oscillator differences above the tolerance of   1.00000000E-01  will be printed 

 Due to basis set deficiency these oscillator may be problematic 

 The tolerance is defined as ABS(1-O_l/O_v) 
 O_l : dipole oscillator strength in length gauge
 O_p : dipole oscillator strength in velocity gauge
 --------------------------------------------------

  Problematic transitions have been found

      From   To       Difference (%) Osc. st. (len.) Osc. st. (vel.)
     ---------------------------------------------------------------
        88   64      --------------- below threshold  2.96248294E-05
        88   76      --------------- below threshold  2.96248294E-05
        43   19      --------------- below threshold  7.21608452E-05
        43   31      --------------- below threshold  7.21608452E-05
         1   19      --------------- below threshold  7.21608452E-05
         1   31      --------------- below threshold  7.21608452E-05
         2   19      --------------- below threshold  2.15556763E-05
         2   31      --------------- below threshold  2.15556763E-05
        48   24      --------------- below threshold  4.56931783E-05
        48   36      --------------- below threshold  4.56931783E-05
        58   81      --------------- below threshold  7.39301075E-05
        58   69      --------------- below threshold  7.39301075E-05
        93   81      --------------- below threshold  7.39301075E-05
        93   69      --------------- below threshold  7.39301075E-05
        59   81      --------------- below threshold  2.67257315E-05
        59   69      --------------- below threshold  2.67257315E-05
        99   75      --------------- below threshold  1.43839087E-04
        99   87      --------------- below threshold  1.43839087E-04
        16   30      --------------- below threshold  8.20017513E-05
        16   42      --------------- below threshold  8.20017513E-05
        54   30      --------------- below threshold  8.20017513E-05
        54   42      --------------- below threshold  8.20017513E-05
        17   30      --------------- below threshold  4.50904384E-05
        17   42      --------------- below threshold  4.50904384E-05
        75   30      --------------- below threshold  8.32934280E-04
        87   42      --------------- below threshold  8.32934280E-04
        24   69      --------------- below threshold  1.22137891E-03
        36   81      --------------- below threshold  1.22137891E-03
        64   19      --------------- below threshold  2.91399816E-03
[...]
        82   38      --------------- below threshold  1.50971847E-05
        82   40      --------------- below threshold  1.89102731E-05
        82   41      ---------------  1.66216461E-05 below threshold
        82   98      --------------- below threshold  2.20713829E-05
        62   83      --------------- below threshold  9.11160832E-05
        62   71      --------------- below threshold  9.11160832E-05
        25   14      --------------- below threshold  2.21231353E-05
        25   71      --------------- below threshold  3.05113395E-05
        25   51      --------------- below threshold  9.67679908E-05
        25   73      --------------- below threshold  6.81487688E-05
        25   74            23.517732  1.52040466E-05  1.98791785E-05
        25   53      --------------- below threshold  1.85529702E-05
        37   14      --------------- below threshold  2.21231353E-05
        37   83      --------------- below threshold  3.05113395E-05
        37   51      --------------- below threshold  9.67679908E-05
        37   85      --------------- below threshold  6.81487688E-05
        37   86            23.517732  1.52040466E-05  1.98791785E-05
        37   53      --------------- below threshold  1.85529702E-05
        95   83      --------------- below threshold  7.40327836E-04
        95   71      --------------- below threshold  7.40327836E-04
        95   51      --------------- below threshold  1.18971942E-03
        95   73      --------------- below threshold  3.25949565E-05
        95   85      --------------- below threshold  3.25949565E-05
        95   74      --------------- below threshold  4.79952762E-05
        95   86      --------------- below threshold  4.79952762E-05
        95   53      --------------- below threshold  4.26480496E-05
        13   26      --------------- below threshold  1.12969579E-05
        13   38      --------------- below threshold  1.12969578E-05
        13   27      --------------- below threshold  3.73311382E-05
        13   39      --------------- below threshold  3.73311382E-05
        13   40      --------------- below threshold  3.19666506E-05
        13   28      --------------- below threshold  3.19666506E-05
        50   26      --------------- below threshold  1.12969578E-05
        50   38      --------------- below threshold  1.12969578E-05
        50   27      --------------- below threshold  3.73311382E-05
        50   39      --------------- below threshold  3.73311382E-05
        50   40      --------------- below threshold  3.19666506E-05
        50   28      --------------- below threshold  3.19666506E-05
        14   26      --------------- below threshold  9.93166985E-04
        14   38      --------------- below threshold  9.93166985E-04
        83   96      --------------- below threshold  3.18432572E-02
        83   38      --------------- below threshold  2.68759913E-05
        83   40      --------------- below threshold  7.50614509E-04
        83   98      --------------- below threshold  1.69078640E-05
        71   96      --------------- below threshold  3.18432573E-02
        71   26      --------------- below threshold  2.68759913E-05
        71   28      --------------- below threshold  7.50614509E-04
        71   98      --------------- below threshold  1.69078640E-05
        96   51      --------------- below threshold  2.01598634E-05
        96   73      --------------- below threshold  1.09454554E-03
        96   85      --------------- below threshold  1.09454554E-03
        96   74      --------------- below threshold  3.99125772E-05
        96   86      --------------- below threshold  3.99125772E-05
        96   53      ---------------  2.65129388E-05 below threshold
        26   51      --------------- below threshold  7.94561380E-04
        26   73      --------------- below threshold  7.84070685E-04
        26   53      --------------- below threshold  1.79386822E-05
        38   51      --------------- below threshold  7.94561380E-04
        38   85      --------------- below threshold  7.84070685E-04
        38   53      --------------- below threshold  1.79386822E-05
        84   97      --------------- below threshold  4.25082413E-04
        84   63      --------------- below threshold  4.25082413E-04
        72   97      --------------- below threshold  4.25082413E-04
        72   63      --------------- below threshold  4.25082413E-04
        51   40      --------------- below threshold  1.06532541E-03
        51   28      --------------- below threshold  1.06532541E-03
        51   29      --------------- below threshold  4.38429598E-05
        51   41      --------------- below threshold  4.38429598E-05
        51   98      ---------------  2.65558844E-05 below threshold
        27   15      --------------- below threshold  4.30471093E-04
        27   52      --------------- below threshold  4.30471093E-04
        39   15      --------------- below threshold  4.30471093E-04
        39   52      --------------- below threshold  4.30471093E-04
        73   97      --------------- below threshold  2.56105251E-04
        73   63      --------------- below threshold  2.56105251E-04
        73   98      --------------- below threshold  1.03298058E-05
        85   97      --------------- below threshold  2.56105251E-04
        85   63      --------------- below threshold  2.56105251E-04
        85   98      --------------- below threshold  1.03298058E-05
        40   15      --------------- below threshold  2.65498711E-04
        40   52      --------------- below threshold  2.65498711E-04
        40   53      --------------- below threshold  1.12935760E-05
        28   15      --------------- below threshold  2.65498711E-04
        28   52      --------------- below threshold  2.65498711E-04
        28   53      --------------- below threshold  1.12935760E-05
        74   29      --------------- below threshold  7.70122240E-05
        74   98      --------------- below threshold  1.09905182E-04
        86   41      --------------- below threshold  7.70122240E-05
        86   98      --------------- below threshold  1.09905182E-04
        29   53      --------------- below threshold  1.28548308E-04
        41   53      --------------- below threshold  1.28548308E-04
        98   53      --------------- below threshold  3.89034480E-05
        77   89      --------------- below threshold  3.70328084E-04
        77   32      --------------- below threshold  7.74465341E-04
        77   55      --------------- below threshold  1.88592155E-05
        77   90      --------------- below threshold  1.88592155E-05
        77   33      --------------- below threshold  6.11011643E-05
        77   56      --------------- below threshold  1.01076095E-04
        77   35      ---------------  2.36809709E-05 below threshold
        65   89      --------------- below threshold  3.70328084E-04
        65   20      --------------- below threshold  7.74465341E-04
        65   55      --------------- below threshold  1.88592155E-05
        65   90      --------------- below threshold  1.88592155E-05
        65   21      --------------- below threshold  6.11011643E-05
        65   56      --------------- below threshold  1.01076095E-04
        65   23      ---------------  2.36809709E-05 below threshold
         4   20      --------------- below threshold  5.07682749E-05
         4   32      --------------- below threshold  5.07682750E-05
         4   55      --------------- below threshold  1.59526953E-03
         4   21      --------------- below threshold  2.80439634E-04
         4   33      --------------- below threshold  2.80439634E-04
         4   22      --------------- below threshold  1.51092673E-04
         4   34      --------------- below threshold  1.51092673E-04
         4   57      --------------- below threshold  5.37340468E-05
        44   20      --------------- below threshold  5.07682749E-05
        44   32      --------------- below threshold  5.07682749E-05
        44   90      --------------- below threshold  1.59526953E-03
        44   21      --------------- below threshold  2.80439634E-04
        44   33      --------------- below threshold  2.80439634E-04
        44   22      --------------- below threshold  1.51092673E-04
        44   34      --------------- below threshold  1.51092673E-04
        44   92      --------------- below threshold  5.37340468E-05
         5   20      --------------- below threshold  6.82577993E-04
         5   32      --------------- below threshold  6.82577993E-04
         5   21      --------------- below threshold  9.71209702E-05
         5   33      --------------- below threshold  9.71209703E-05
         5   56           226.156883  4.00788972E-05  1.22882267E-05
         5   35      --------------- below threshold  9.49351954E-05
         5   23      --------------- below threshold  9.49351954E-05
        89   79      --------------- below threshold  2.62080993E-04
        89   67      --------------- below threshold  2.62080993E-04
        89   68      --------------- below threshold  1.08543733E-05
        89   80      --------------- below threshold  1.08543733E-05
        20    7      --------------- below threshold  1.04605860E-04
        20   45      --------------- below threshold  1.04605860E-04
        20   67      --------------- below threshold  1.19289719E-04
        20   68            77.629586  2.26925585E-05  1.01440045E-04
        20   10      --------------- below threshold  4.29242217E-05
        20   47      --------------- below threshold  1.03532871E-05
        20   11      --------------- below threshold  1.03532871E-05
        32    7      --------------- below threshold  1.04605860E-04
        32   45      --------------- below threshold  1.04605860E-04
        32   79      --------------- below threshold  1.19289719E-04
        32   80            77.629586  2.26925585E-05  1.01440045E-04
        32   10      --------------- below threshold  4.29242217E-05
        32   47      --------------- below threshold  1.03532871E-05
        32   11      --------------- below threshold  1.03532871E-05
         6   21      --------------- below threshold  2.50150256E-04
         6   33      --------------- below threshold  2.50150256E-04
         6   56      --------------- below threshold  1.65096568E-04
        55   66      --------------- below threshold  1.29049726E-03
        55   78      --------------- below threshold  1.29049726E-03
        55    7      --------------- below threshold  1.05217847E-03
        55   79      --------------- below threshold  1.59978954E-03
        55   67      --------------- below threshold  1.59978954E-03
        55   68      --------------- below threshold  3.75238097E-05
        55   80      --------------- below threshold  3.75238097E-05
        55   11      ---------------  2.64405872E-05 below threshold
        90   66      --------------- below threshold  1.29049726E-03
        90   78      --------------- below threshold  1.29049726E-03
        90   45      --------------- below threshold  1.05217847E-03
        90   79      --------------- below threshold  1.59978954E-03
        90   67      --------------- below threshold  1.59978954E-03
        90   68      --------------- below threshold  3.75238097E-05
        90   80      --------------- below threshold  3.75238097E-05
        90   47      ---------------  2.64405872E-05 below threshold
        66   22      --------------- below threshold  8.28722868E-04
        66   57      --------------- below threshold  7.18742449E-05
        66   92      --------------- below threshold  7.18742449E-05
        78   34      --------------- below threshold  8.28722868E-04
        78   57      --------------- below threshold  7.18742449E-05
        78   92      --------------- below threshold  7.18742449E-05
         7   21      --------------- below threshold  2.64412181E-03
         7   33      --------------- below threshold  2.64412181E-03
         7   22      --------------- below threshold  1.34507003E-04
         7   34      --------------- below threshold  1.34507003E-04
         7   35      --------------- below threshold  2.92275885E-05
         7   23      --------------- below threshold  2.92275885E-05
         7   57            79.657957  1.80181005E-05  1.00291135E-05
        45   21      --------------- below threshold  2.64412181E-03
        45   33      --------------- below threshold  2.64412181E-03
        45   22      --------------- below threshold  1.34507003E-04
        45   34      --------------- below threshold  1.34507003E-04
        45   35      --------------- below threshold  2.92275885E-05
        45   23      --------------- below threshold  2.92275885E-05
        45   92            79.657957  1.80181005E-05  1.00291135E-05
        21   67      --------------- below threshold  9.01847762E-05
        21    8      --------------- below threshold  1.07435219E-03
        21   68      --------------- below threshold  1.10932176E-05
        33   79      --------------- below threshold  9.01847763E-05
        33    8      --------------- below threshold  1.07435219E-03
        33   80      --------------- below threshold  1.10932176E-05
        79   91      --------------- below threshold  1.09431066E-03
        67   91      --------------- below threshold  1.09431066E-03
        22    9      --------------- below threshold  3.93548808E-05
        22   46      --------------- below threshold  3.93548808E-05
        22   47      --------------- below threshold  3.31344780E-05
        22   11      --------------- below threshold  3.31344780E-05
        34    9      --------------- below threshold  3.93548808E-05
        34   46      --------------- below threshold  3.93548808E-05
        34   47      --------------- below threshold  3.31344780E-05
        34   11      --------------- below threshold  3.31344780E-05
        56   68      --------------- below threshold  1.93152685E-05
        56   80      --------------- below threshold  1.93152685E-05
        56   10      --------------- below threshold  1.12932684E-03
        56   12      ---------------  6.39271324E-05 below threshold
        68   23      --------------- below threshold  3.44964539E-04
        80   35      --------------- below threshold  3.44964539E-04
        35   10      --------------- below threshold  6.01402065E-02
        35   47      --------------- below threshold  2.34419770E-04
        35   11      --------------- below threshold  2.34419770E-04
        23   10      --------------- below threshold  6.01402065E-02
        23   47      --------------- below threshold  2.34419770E-04
        23   11      --------------- below threshold  2.34419770E-04
     ---------------------------------------------------------------

 Number of problematic transitions =                   288

--

 Electric-dipole - electric-octupole not included
 Electric-dipole - magnetic-quadrupole not included


      ****************************************************************************************************
      *                                                                                                  *
      *                                    Special properties section                                    *
      *                                                                                                  *
      ****************************************************************************************************


++ I/O STATISTICS
 
  I. General I/O information
  - - - - - - - - - - - - - - - - - - - - - - - - - - - - - - - - - - - - - - - - - - -
  Unit  Name          Flsize      Write/Read            MBytes           Write/Read
                      (MBytes)       Calls              In/Out           Time, sec.
  - - - - - - - - - - - - - - - - - - - - - - - - - - - - - - - - - - - - - - - - - - -
   1  RUNFILE           0.99 .     266/  262973 .      2.5/   1902.4 .       0/       0
   2  ANNI              0.00 .       0/       0 .      0.0/      0.0 .       0/       0
   3  ONEINT            1.54 .       0/  126040 .      0.0/ 152831.4 .       0/      18
   4  JOBIPH            1.52 .       0/     651 .      0.0/      1.5 .       0/       0
   5  JOBIPH01          1.22 .       0/     219 .      0.0/      1.3 .       0/       0
   6  JOBIPH02          1.22 .       0/     219 .      0.0/      1.3 .       0/       0
   7  JOBIPH03          1.28 .       0/     315 .      0.0/      1.4 .       0/       0
   8  JOBIPH04          1.32 .       0/     363 .      0.0/      1.4 .       0/       0
   9  JOBIPH05          1.15 .       0/     123 .      0.0/      1.3 .       0/       0
  10  JOBIPH06          1.28 .       0/     315 .      0.0/      1.4 .       0/       0
  11  JOBIPH07          1.32 .       0/     363 .      0.0/      1.4 .       0/       0
  12  JOBIPH08          1.15 .       0/     123 .      0.0/      1.3 .       0/       0
  13  JOBIPH09          1.28 .       0/     315 .      0.0/      1.4 .       0/       0
  14  JOBIPH10          1.32 .       0/     363 .      0.0/      1.4 .       0/       0
  15  JOBIPH11          1.15 .       0/     123 .      0.0/      1.3 .       0/       0
  16  JOBIPH12          1.22 .       0/     219 .      0.0/      1.3 .       0/       0
  17  JOBIPH13          1.32 .       0/     363 .      0.0/      1.4 .       0/       0
  18  JOBIPH14          1.28 .       0/     315 .      0.0/      1.4 .       0/       0
  19  JOBIPH15          1.32 .       0/     363 .      0.0/      1.4 .       0/       0
  20  JOBIPH16          1.15 .       0/     123 .      0.0/      1.3 .       0/       0
  21  JOBIPH17          1.28 .       0/     315 .      0.0/      1.4 .       0/       0
  22  JOBIPH18          1.32 .       0/     363 .      0.0/      1.4 .       0/       0
  23  JOBIPH19          1.15 .       0/     123 .      0.0/      1.3 .       0/       0
  24  JOBIPH20          1.28 .       0/     315 .      0.0/      1.4 .       0/       0
  25  JOBIPH21          1.32 .       0/     363 .      0.0/      1.4 .       0/       0
  26  JOBIPH22          1.15 .       0/     123 .      0.0/      1.3 .       0/       0
  - - - - - - - - - - - - - - - - - - - - - - - - - - - - - - - - - - - - - - - - - - -
   *  TOTAL            31.50 .     266/  395490 .      2.5/ 154764.9 .       0/      19
  - - - - - - - - - - - - - - - - - - - - - - - - - - - - - - - - - - - - - - - - - - -
 
  II. I/O Access Patterns
  - - - - - - - - - - - - - - - - - - - -
  Unit  Name               % of random
                         Write/Read calls
  - - - - - - - - - - - - - - - - - - - -
   1  RUNFILE             28.6/  11.1
   2  ANNI                 0.0/   0.0
   3  ONEINT               0.0/  99.3
   4  JOBIPH               0.0/  51.9
   5  JOBIPH01             0.0/  55.7
   6  JOBIPH02             0.0/  55.7
   7  JOBIPH03             0.0/  54.0
   8  JOBIPH04             0.0/  53.4
   9  JOBIPH05             0.0/  60.2
  10  JOBIPH06             0.0/  54.0
  11  JOBIPH07             0.0/  53.4
  12  JOBIPH08             0.0/  60.2
  13  JOBIPH09             0.0/  54.0
  14  JOBIPH10             0.0/  53.4
  15  JOBIPH11             0.0/  60.2
  16  JOBIPH12             0.0/  55.7
  17  JOBIPH13             0.0/  53.4
  18  JOBIPH14             0.0/  54.0
  19  JOBIPH15             0.0/  53.4
  20  JOBIPH16             0.0/  60.2
  21  JOBIPH17             0.0/  54.0
  22  JOBIPH18             0.0/  53.4
  23  JOBIPH19             0.0/  60.2
  24  JOBIPH20             0.0/  54.0
  25  JOBIPH21             0.0/  53.4
  26  JOBIPH22             0.0/  60.2
  - - - - - - - - - - - - - - - - - - - -
--
--- Stop Module: rassi at Thu Apr 17 11:04:26 2025 /rc=_RC_ALL_IS_WELL_ ---
--- Module rassi spent 40 seconds ---

.##################.
.# Happy landing! #.
.##################.

    Timing: Wall=40.10 User=19.77 System=19.96
