   This run of MOLCAS is using the pymolcas driver

                             OPE
                             OPE          NMOL  CASOP  ENMOLC A   SO
                 OPE        NMOLC        AS  OP EN  MO LC     AS  OP
                OPENM       OL CA        SO  PE NM  OL CA     SOP EN
                OP EN      MO   LC       AS  OP ENMOL  CASO   PENMOL
                OP  EN     MO   LC       AS  OP EN     MO     LC ASO
               OP   E  NMOL  C  AS       OP  EN MO     LC     AS  OP
               OP  E   NMO   LC AS        OPEN  MO     LCASOP EN   M
               O  PEN   MO  LCA  SO
            OPE   NMO   L   CAS    OP
        OPENMOL  CASOP     ENMOL   CASOPE
     OPENMOLCA   SOPENMOLCASOPEN   MOLCASOPE
    OPENMOLCAS   OP           EN   MOL    CAS
    OPENMOLCAS       OP  ENM        O     LCA
    OPENMOLCAS    OPEN  MOLCASO     P  E  NMO
    OPENMOLCAS     OP               E  N  MOL
    OPENMOLCA   SO           PENM   O  L  CAS    OPEN    MO    LCAS
    OPENMOLCA   SOP           ENM   O  L  CAS   OP  EN  MOLC  AS   O
    OPENMOLCA   SOPE           NM      O  LCA   S      OP  EN MO
    OPENMOLC                AS         O  PEN   M      OL  CA  SOPE
    OPENMO        LCASOPE  NMOL        C  ASO   P      ENMOLC     AS
    OPE     NMO      LCA  SO     P     E   NM   OL  CA SO  PE N   MO
          OPENMOLCA            SOPE   NMO        LCAS  O    P  ENMO
     OPENMOLCASOPENMOLCASOPENMOLCASOPENMOLCA
        OPENMOLCASOPENMOLCASOPENMOLCASOPE
            OPENMOLCASOPENMOLCASOPENM
               OPENMOLCASOPENMOLCA        version: 25.02
                   OPENMOLCASO
                       OPE                tag: 92-gf4b470f0a

 OpenMolcas is free software; you can redistribute it and/or modify it
 under the terms of the GNU Lesser General Public License version 2.1.
 OpenMolcas is distributed in the hope that it will be useful, but it
 is provided "as is" and without any express or implied warranties.
 For more details see the full text of the license in the file
 LICENSE or in <http://www.gnu.org/licenses/>.

                 Copyright (C) The OpenMolcas Authors
           For the author list and the recommended citation,
                   consult the file CONTRIBUTORS.md

           *************************************************
           * pymolcas version py2.29                       *
           *   build 2ba4516c4d154a59cba941070ba63e2c      *
           *   (after the EMIL interpreter by V. Veryazov) *
           *************************************************

configuration info
------------------
Host name: iftia91.univ.gda.pl (Linux)
C Compiler ID: GNU
C flags: -std=gnu99
Fortran Compiler ID: GNU
Fortran flags: -cpp -fdefault-integer-8 -fmax-stack-var-size=1048576
Definitions: _MOLCAS_;_I8_;_LINUX_
Parallel: OFF (GA=OFF)


   --------------------------------------------------------------------
  |
  |           Project: O2
  |    Submitted from: /scratch/tecumseh/WorkSpace/O2.1.1000
  |      Scratch area: /scratch/tecumseh/WorkSpace/O2.1.1000
  |   Save outputs to: WORKDIR
  |            Molcas: /home/tecumseh/program/OpenMolcas/build
  |
  | Scratch area is NOT empty
  |
  |    MOLCAS_DRIVER = /home/tecumseh/program/OpenMolcas/build/pymolcas
  |    MOLCAS_NPROCS = 1
  |    MOLCAS_SOURCE = /home/tecumseh/program/OpenMolcas/OpenMolcas
  | MOLCAS_STRUCTURE = 0
  |
   --------------------------------------------------------------------

++ ---------   Input file   ---------

>>> COPY $dir/vectors/$Project.$R.1Ag-12S.JobIph $WorkDir/JOBIPH

>>> COPY $dir/vectors/$Project.$R.3Ag-3S.JobIph $WorkDir/JOBIPH01

>>> COPY $dir/vectors/$Project.$R.5Ag-3S.JobIph $WorkDir/JOBIPH02

>>> COPY $dir/vectors/$Project.$R.1B3u-5S.JobIph $WorkDir/JOBIPH03

>>> COPY $dir/vectors/$Project.$R.3B3u-6S.JobIph $WorkDir/JOBIPH04

>>> COPY $dir/vectors/$Project.$R.5B3u-1S.JobIph $WorkDir/JOBIPH05

>>> COPY $dir/vectors/$Project.$R.1B2u-5S.JobIph $WorkDir/JOBIPH06

>>> COPY $dir/vectors/$Project.$R.3B2u-6S.JobIph $WorkDir/JOBIPH07

>>> COPY $dir/vectors/$Project.$R.5B2u-1S.JobIph $WorkDir/JOBIPH08

>>> COPY $dir/vectors/$Project.$R.1B1g-5S.JobIph $WorkDir/JOBIPH09

>>> COPY $dir/vectors/$Project.$R.3B1g-6S.JobIph $WorkDir/JOBIPH10

>>> COPY $dir/vectors/$Project.$R.5B1g-1S.JobIph $WorkDir/JOBIPH11

>>> COPY $dir/vectors/$Project.$R.1B1u-3S.JobIph $WorkDir/JOBIPH12

>>> COPY $dir/vectors/$Project.$R.3B1u-6S.JobIph $WorkDir/JOBIPH13

>>> COPY $dir/vectors/$Project.$R.1B2g-5S.JobIph $WorkDir/JOBIPH14

>>> COPY $dir/vectors/$Project.$R.3B2g-6S.JobIph $WorkDir/JOBIPH15

>>> COPY $dir/vectors/$Project.$R.5B2g-1S.JobIph $WorkDir/JOBIPH16

>>> COPY $dir/vectors/$Project.$R.1B3g-5S.JobIph $WorkDir/JOBIPH17

>>> COPY $dir/vectors/$Project.$R.3B3g-6S.JobIph $WorkDir/JOBIPH18

>>> COPY $dir/vectors/$Project.$R.5B3g-1S.JobIph $WorkDir/JOBIPH19

>>> COPY $dir/vectors/$Project.$R.1Au-5S.JobIph $WorkDir/JOBIPH20

>>> COPY $dir/vectors/$Project.$R.3Au-6S.JobIph $WorkDir/JOBIPH21

>>> COPY $dir/vectors/$Project.$R.5Au-1S.JobIph $WorkDir/JOBIPH22

&RASSI

OMEGa
NROF=23 12 3 3 5 6 1 5 6 1 5 6 1 3 6 5 6 1 5 6 1 5 6 1
1 2 3 4 5 6 7 8 9 10 11 12
1 2 3
1 2 3
1 2 3 4 5
1 2 3 4 5 6
1
1 2 3 4 5
1 2 3 4 5 6
1
1 2 3 4 5
1 2 3 4 5 6
1
1 2 3
1 2 3 4 5 6
1 2 3 4 5
1 2 3 4 5 6
1
1 2 3 4 5
1 2 3 4 5 6
1
1 2 3 4 5
1 2 3 4 5 6
1
EJOB

-- ----------------------------------

>>> COPY /home/tecumseh/project/molecule/O2/OpenMolcas/vectors/O2.1.1000.1Ag-12S.JobIph /scratch/tecumseh/WorkSpace/O2.1.1000/JOBIPH

>>> COPY /home/tecumseh/project/molecule/O2/OpenMolcas/vectors/O2.1.1000.3Ag-3S.JobIph /scratch/tecumseh/WorkSpace/O2.1.1000/JOBIPH01

>>> COPY /home/tecumseh/project/molecule/O2/OpenMolcas/vectors/O2.1.1000.5Ag-3S.JobIph /scratch/tecumseh/WorkSpace/O2.1.1000/JOBIPH02

>>> COPY /home/tecumseh/project/molecule/O2/OpenMolcas/vectors/O2.1.1000.1B3u-5S.JobIph /scratch/tecumseh/WorkSpace/O2.1.1000/JOBIPH03

>>> COPY /home/tecumseh/project/molecule/O2/OpenMolcas/vectors/O2.1.1000.3B3u-6S.JobIph /scratch/tecumseh/WorkSpace/O2.1.1000/JOBIPH04

>>> COPY /home/tecumseh/project/molecule/O2/OpenMolcas/vectors/O2.1.1000.5B3u-1S.JobIph /scratch/tecumseh/WorkSpace/O2.1.1000/JOBIPH05

>>> COPY /home/tecumseh/project/molecule/O2/OpenMolcas/vectors/O2.1.1000.1B2u-5S.JobIph /scratch/tecumseh/WorkSpace/O2.1.1000/JOBIPH06

>>> COPY /home/tecumseh/project/molecule/O2/OpenMolcas/vectors/O2.1.1000.3B2u-6S.JobIph /scratch/tecumseh/WorkSpace/O2.1.1000/JOBIPH07

>>> COPY /home/tecumseh/project/molecule/O2/OpenMolcas/vectors/O2.1.1000.5B2u-1S.JobIph /scratch/tecumseh/WorkSpace/O2.1.1000/JOBIPH08

>>> COPY /home/tecumseh/project/molecule/O2/OpenMolcas/vectors/O2.1.1000.1B1g-5S.JobIph /scratch/tecumseh/WorkSpace/O2.1.1000/JOBIPH09

>>> COPY /home/tecumseh/project/molecule/O2/OpenMolcas/vectors/O2.1.1000.3B1g-6S.JobIph /scratch/tecumseh/WorkSpace/O2.1.1000/JOBIPH10

>>> COPY /home/tecumseh/project/molecule/O2/OpenMolcas/vectors/O2.1.1000.5B1g-1S.JobIph /scratch/tecumseh/WorkSpace/O2.1.1000/JOBIPH11

>>> COPY /home/tecumseh/project/molecule/O2/OpenMolcas/vectors/O2.1.1000.1B1u-3S.JobIph /scratch/tecumseh/WorkSpace/O2.1.1000/JOBIPH12

>>> COPY /home/tecumseh/project/molecule/O2/OpenMolcas/vectors/O2.1.1000.3B1u-6S.JobIph /scratch/tecumseh/WorkSpace/O2.1.1000/JOBIPH13

>>> COPY /home/tecumseh/project/molecule/O2/OpenMolcas/vectors/O2.1.1000.1B2g-5S.JobIph /scratch/tecumseh/WorkSpace/O2.1.1000/JOBIPH14

>>> COPY /home/tecumseh/project/molecule/O2/OpenMolcas/vectors/O2.1.1000.3B2g-6S.JobIph /scratch/tecumseh/WorkSpace/O2.1.1000/JOBIPH15

>>> COPY /home/tecumseh/project/molecule/O2/OpenMolcas/vectors/O2.1.1000.5B2g-1S.JobIph /scratch/tecumseh/WorkSpace/O2.1.1000/JOBIPH16

>>> COPY /home/tecumseh/project/molecule/O2/OpenMolcas/vectors/O2.1.1000.1B3g-5S.JobIph /scratch/tecumseh/WorkSpace/O2.1.1000/JOBIPH17

>>> COPY /home/tecumseh/project/molecule/O2/OpenMolcas/vectors/O2.1.1000.3B3g-6S.JobIph /scratch/tecumseh/WorkSpace/O2.1.1000/JOBIPH18

>>> COPY /home/tecumseh/project/molecule/O2/OpenMolcas/vectors/O2.1.1000.5B3g-1S.JobIph /scratch/tecumseh/WorkSpace/O2.1.1000/JOBIPH19

>>> COPY /home/tecumseh/project/molecule/O2/OpenMolcas/vectors/O2.1.1000.1Au-5S.JobIph /scratch/tecumseh/WorkSpace/O2.1.1000/JOBIPH20

>>> COPY /home/tecumseh/project/molecule/O2/OpenMolcas/vectors/O2.1.1000.3Au-6S.JobIph /scratch/tecumseh/WorkSpace/O2.1.1000/JOBIPH21

>>> COPY /home/tecumseh/project/molecule/O2/OpenMolcas/vectors/O2.1.1000.5Au-1S.JobIph /scratch/tecumseh/WorkSpace/O2.1.1000/JOBIPH22

--- Start Module: rassi at Thu Apr 17 11:02:03 2025 ---

()()()()()()()()()()()()()()()()()()()()()()()()()()()()()()()()()()()()()()()()()()()()()()()()()()

                                               &RASSI

                                   only a single process is used
                       available to each process: 2.0 GB of memory, 1 thread?
                                            pid: 298872
()()()()()()()()()()()()()()()()()()()()()()()()()()()()()()()()()()()()()()()()()()()()()()()()()()


      ********************************************************************************
      *                                                                              *
      *                             General data section                             *
      *                                                                              *
      ********************************************************************************

   Specific data for JOBIPH file JOBIPH
   -------------------------------------

   Header from SEWARD:
                            O2, D2h symmetry, aug-cc-pVTZ                      
        Integrals generated by Gateway/Seward, Wed Apr 16 15:47:45 2025        

   CASSCF title (first line only):
       O2, 1Ag 12S                                                             

  STATE IRREP:                1
  SPIN MULTIPLICITY:          1
  ACTIVE ELECTRONS:          12
  MAX RAS1 HOLES:             0
  MAX RAS3 ELECTRONS:         0
  NR OF CONFIG:              60

   Specific data for JOBIPH file JOBIPH01
   -------------------------------------

   Header from SEWARD:
                            O2, D2h symmetry, aug-cc-pVTZ                      
        Integrals generated by Gateway/Seward, Wed Apr 16 15:47:45 2025        

   CASSCF title (first line only):
       O2, 3Ag  3S                                                             

  STATE IRREP:                1
  SPIN MULTIPLICITY:          3
  ACTIVE ELECTRONS:          12
  MAX RAS1 HOLES:             0
  MAX RAS3 ELECTRONS:         0
  NR OF CONFIG:              42

   Specific data for JOBIPH file JOBIPH02
   -------------------------------------

   Header from SEWARD:
                            O2, D2h symmetry, aug-cc-pVTZ                      
        Integrals generated by Gateway/Seward, Wed Apr 16 15:47:45 2025        

   CASSCF title (first line only):
       O2, 5Ag  3S                                                             

  STATE IRREP:                1
  SPIN MULTIPLICITY:          5
  ACTIVE ELECTRONS:          12
  MAX RAS1 HOLES:             0
  MAX RAS3 ELECTRONS:         0
  NR OF CONFIG:              10

   Specific data for JOBIPH file JOBIPH03
   -------------------------------------

   Header from SEWARD:
                            O2, D2h symmetry, aug-cc-pVTZ                      
        Integrals generated by Gateway/Seward, Thu Apr 17 11:01:53 2025        

   CASSCF title (first line only):
       O2, 1B3u 5S                                                             

  STATE IRREP:                2
  SPIN MULTIPLICITY:          1
  ACTIVE ELECTRONS:          12
  MAX RAS1 HOLES:             0
  MAX RAS3 ELECTRONS:         0
  NR OF CONFIG:              40

   Specific data for JOBIPH file JOBIPH04
   -------------------------------------

   Header from SEWARD:
                            O2, D2h symmetry, aug-cc-pVTZ                      
        Integrals generated by Gateway/Seward, Wed Apr 16 15:47:45 2025        

   CASSCF title (first line only):
       O2, 3B3u 6S                                                             

  STATE IRREP:                2
  SPIN MULTIPLICITY:          3
  ACTIVE ELECTRONS:          12
  MAX RAS1 HOLES:             0
  MAX RAS3 ELECTRONS:         0
  NR OF CONFIG:              48

   Specific data for JOBIPH file JOBIPH05
   -------------------------------------

   Header from SEWARD:
                            O2, D2h symmetry, aug-cc-pVTZ                      
        Integrals generated by Gateway/Seward, Wed Apr 16 15:47:45 2025        

   CASSCF title (first line only):
       O2, 5B3u 1S                                                             

  STATE IRREP:                2
  SPIN MULTIPLICITY:          5
  ACTIVE ELECTRONS:          12
  MAX RAS1 HOLES:             0
  MAX RAS3 ELECTRONS:         0
  NR OF CONFIG:               8

   Specific data for JOBIPH file JOBIPH06
   -------------------------------------

   Header from SEWARD:
                            O2, D2h symmetry, aug-cc-pVTZ                      
        Integrals generated by Gateway/Seward, Thu Apr 17 11:01:53 2025        

   CASSCF title (first line only):
       O2, 1B2u 5S                                                             

  STATE IRREP:                3
  SPIN MULTIPLICITY:          1
  ACTIVE ELECTRONS:          12
  MAX RAS1 HOLES:             0
  MAX RAS3 ELECTRONS:         0
  NR OF CONFIG:              40

   Specific data for JOBIPH file JOBIPH07
   -------------------------------------

   Header from SEWARD:
                            O2, D2h symmetry, aug-cc-pVTZ                      
        Integrals generated by Gateway/Seward, Wed Apr 16 15:47:45 2025        

   CASSCF title (first line only):
       O2, 3B2u 6S                                                             

  STATE IRREP:                3
  SPIN MULTIPLICITY:          3
  ACTIVE ELECTRONS:          12
  MAX RAS1 HOLES:             0
  MAX RAS3 ELECTRONS:         0
  NR OF CONFIG:              48

   Specific data for JOBIPH file JOBIPH08
   -------------------------------------

   Header from SEWARD:
                            O2, D2h symmetry, aug-cc-pVTZ                      
        Integrals generated by Gateway/Seward, Wed Apr 16 15:47:45 2025        

   CASSCF title (first line only):
       O2, 5B2u 1S                                                             

  STATE IRREP:                3
  SPIN MULTIPLICITY:          5
  ACTIVE ELECTRONS:          12
  MAX RAS1 HOLES:             0
  MAX RAS3 ELECTRONS:         0
  NR OF CONFIG:               8

   Specific data for JOBIPH file JOBIPH09
   -------------------------------------

   Header from SEWARD:
                            O2, D2h symmetry, aug-cc-pVTZ                      
        Integrals generated by Gateway/Seward, Wed Apr 16 15:47:45 2025        

   CASSCF title (first line only):
       O2, 1B1g 5S                                                             

  STATE IRREP:                4
  SPIN MULTIPLICITY:          1
  ACTIVE ELECTRONS:          12
  MAX RAS1 HOLES:             0
  MAX RAS3 ELECTRONS:         0
  NR OF CONFIG:              36

   Specific data for JOBIPH file JOBIPH10
   -------------------------------------

   Header from SEWARD:
                            O2, D2h symmetry, aug-cc-pVTZ                      
        Integrals generated by Gateway/Seward, Wed Apr 16 15:47:45 2025        

   CASSCF title (first line only):
       O2, 3B1g 6S                                                             

  STATE IRREP:                4
  SPIN MULTIPLICITY:          3
  ACTIVE ELECTRONS:          12
  MAX RAS1 HOLES:             0
  MAX RAS3 ELECTRONS:         0
  NR OF CONFIG:              48

   Specific data for JOBIPH file JOBIPH11
   -------------------------------------

   Header from SEWARD:
                            O2, D2h symmetry, aug-cc-pVTZ                      
        Integrals generated by Gateway/Seward, Wed Apr 16 15:47:45 2025        

   CASSCF title (first line only):
       O2, 5B1g 1S                                                             

  STATE IRREP:                4
  SPIN MULTIPLICITY:          5
  ACTIVE ELECTRONS:          12
  MAX RAS1 HOLES:             0
  MAX RAS3 ELECTRONS:         0
  NR OF CONFIG:              12

   Specific data for JOBIPH file JOBIPH12
   -------------------------------------

   Header from SEWARD:
                            O2, D2h symmetry, aug-cc-pVTZ                      
        Integrals generated by Gateway/Seward, Thu Apr 17 11:01:53 2025        

   CASSCF title (first line only):
       O2, 1B1u 3S                                                             

  STATE IRREP:                5
  SPIN MULTIPLICITY:          1
  ACTIVE ELECTRONS:          12
  MAX RAS1 HOLES:             0
  MAX RAS3 ELECTRONS:         0
  NR OF CONFIG:              44

   Specific data for JOBIPH file JOBIPH13
   -------------------------------------

   Header from SEWARD:
                            O2, D2h symmetry, aug-cc-pVTZ                      
        Integrals generated by Gateway/Seward, Wed Apr 16 15:47:45 2025        

   CASSCF title (first line only):
       O2, 3B1u 6S                                                             

  STATE IRREP:                5
  SPIN MULTIPLICITY:          3
  ACTIVE ELECTRONS:          12
  MAX RAS1 HOLES:             0
  MAX RAS3 ELECTRONS:         0
  NR OF CONFIG:              48

   Specific data for JOBIPH file JOBIPH14
   -------------------------------------

   Header from SEWARD:
                            O2, D2h symmetry, aug-cc-pVTZ                      
        Integrals generated by Gateway/Seward, Wed Apr 16 15:47:45 2025        

   CASSCF title (first line only):
       O2, 1B2g 5S                                                             

  STATE IRREP:                6
  SPIN MULTIPLICITY:          1
  ACTIVE ELECTRONS:          12
  MAX RAS1 HOLES:             0
  MAX RAS3 ELECTRONS:         0
  NR OF CONFIG:              40

   Specific data for JOBIPH file JOBIPH15
   -------------------------------------

   Header from SEWARD:
                            O2, D2h symmetry, aug-cc-pVTZ                      
        Integrals generated by Gateway/Seward, Wed Apr 16 15:47:45 2025        

   CASSCF title (first line only):
       O2, 3B2g 6S                                                             

  STATE IRREP:                6
  SPIN MULTIPLICITY:          3
  ACTIVE ELECTRONS:          12
  MAX RAS1 HOLES:             0
  MAX RAS3 ELECTRONS:         0
  NR OF CONFIG:              48

   Specific data for JOBIPH file JOBIPH16
   -------------------------------------

   Header from SEWARD:
                            O2, D2h symmetry, aug-cc-pVTZ                      
        Integrals generated by Gateway/Seward, Wed Apr 16 15:47:45 2025        

   CASSCF title (first line only):
       O2, 5B2g 1S                                                             

  STATE IRREP:                6
  SPIN MULTIPLICITY:          5
  ACTIVE ELECTRONS:          12
  MAX RAS1 HOLES:             0
  MAX RAS3 ELECTRONS:         0
  NR OF CONFIG:               8

   Specific data for JOBIPH file JOBIPH17
   -------------------------------------

   Header from SEWARD:
                            O2, D2h symmetry, aug-cc-pVTZ                      
        Integrals generated by Gateway/Seward, Wed Apr 16 15:47:45 2025        

   CASSCF title (first line only):
       O2, 1B3g 5S                                                             

  STATE IRREP:                7
  SPIN MULTIPLICITY:          1
  ACTIVE ELECTRONS:          12
  MAX RAS1 HOLES:             0
  MAX RAS3 ELECTRONS:         0
  NR OF CONFIG:              40

   Specific data for JOBIPH file JOBIPH18
   -------------------------------------

   Header from SEWARD:
                            O2, D2h symmetry, aug-cc-pVTZ                      
        Integrals generated by Gateway/Seward, Wed Apr 16 15:47:45 2025        

   CASSCF title (first line only):
       O2, 3B3g 6S                                                             

  STATE IRREP:                7
  SPIN MULTIPLICITY:          3
  ACTIVE ELECTRONS:          12
  MAX RAS1 HOLES:             0
  MAX RAS3 ELECTRONS:         0
  NR OF CONFIG:              48

   Specific data for JOBIPH file JOBIPH19
   -------------------------------------

   Header from SEWARD:
                            O2, D2h symmetry, aug-cc-pVTZ                      
        Integrals generated by Gateway/Seward, Wed Apr 16 15:47:45 2025        

   CASSCF title (first line only):
       O2, 5B3g 1S                                                             

  STATE IRREP:                7
  SPIN MULTIPLICITY:          5
  ACTIVE ELECTRONS:          12
  MAX RAS1 HOLES:             0
  MAX RAS3 ELECTRONS:         0
  NR OF CONFIG:               8

   Specific data for JOBIPH file JOBIPH20
   -------------------------------------

   Header from SEWARD:
                            O2, D2h symmetry, aug-cc-pVTZ                      
        Integrals generated by Gateway/Seward, Thu Apr 17 11:01:53 2025        

   CASSCF title (first line only):
       O2, 1Au 5S                                                              

  STATE IRREP:                8
  SPIN MULTIPLICITY:          1
  ACTIVE ELECTRONS:          12
  MAX RAS1 HOLES:             0
  MAX RAS3 ELECTRONS:         0
  NR OF CONFIG:              36

   Specific data for JOBIPH file JOBIPH21
   -------------------------------------

   Header from SEWARD:
                            O2, D2h symmetry, aug-cc-pVTZ                      
        Integrals generated by Gateway/Seward, Wed Apr 16 15:47:45 2025        

   CASSCF title (first line only):
       O2, 3Au 6S                                                              

  STATE IRREP:                8
  SPIN MULTIPLICITY:          3
  ACTIVE ELECTRONS:          12
  MAX RAS1 HOLES:             0
  MAX RAS3 ELECTRONS:         0
  NR OF CONFIG:              48

   Specific data for JOBIPH file JOBIPH22
   -------------------------------------

   Header from SEWARD:
                            O2, D2h symmetry, aug-cc-pVTZ                      
        Integrals generated by Gateway/Seward, Wed Apr 16 15:47:45 2025        

   CASSCF title (first line only):
       O2, 5Au 1S                                                              

  STATE IRREP:                8
  SPIN MULTIPLICITY:          5
  ACTIVE ELECTRONS:          12
  MAX RAS1 HOLES:             0
  MAX RAS3 ELECTRONS:         0
  NR OF CONFIG:              12
 ###############################################################################
 ###############################################################################
 ###                                                                         ###
 ###                                                                         ###
 ###    WARNING: EJOB used when HEFF is available, possible                  ###
 ###    extra interaction between states is ignored!                         ###
 ###                                                                         ###
 ###                                                                         ###
 ###############################################################################
 ###############################################################################

   The following data are common to all the states:
   ------------------------------------------------
   (note: frozen counts as inactive, deleted as secondary)

      Nr of irreps: 8

                 Total     No./Irrep 
      Irrep                  1   2   3   4   5   6   7   8
                            ag b3u b2u b1g b1u b2g b3g  au

      INACTIVE       2       1   0   0   0   1   0   0   0
      ACTIVE         8       2   1   1   0   2   1   1   0
      SECONDARY     82      16  10  10   5  16  10  10   5
      BASIS         92      19  11  11   5  19  11  11   5

      RAS1           0       0   0   0   0   0   0   0   0
      RAS2           8       2   1   1   0   2   1   1   0
      RAS3           0       0   0   0   0   0   0   0   0

        MATRIX ELEMENTS WILL BE COMPUTED FOR THE FOLLOWING ONE-ELECTRON OPERATORS, UNLESS ZERO BY SYMMETRY.
   (Herm=Hermitian, Anti=Antihermitian, Sing=Singlet operator, Trip=Triplet operator)
     MLTPL  0   1 (HERMSING)     MLTPL  1   1 (HERMSING)     MLTPL  1   2 (HERMSING)
     MLTPL  1   3 (HERMSING)     MLTPL  2   1 (HERMSING)     MLTPL  2   2 (HERMSING)
     MLTPL  2   3 (HERMSING)     MLTPL  2   4 (HERMSING)     MLTPL  2   5 (HERMSING)
     MLTPL  2   6 (HERMSING)     VELOCITY   1 (ANTISING)     VELOCITY   2 (ANTISING)
     VELOCITY   3 (ANTISING)     ANGMOM     1 (ANTISING)     ANGMOM     2 (ANTISING)
     ANGMOM     3 (ANTISING)     MLTPV  2   1 (ANTISING)     MLTPV  2   2 (ANTISING)
     MLTPV  2   3 (ANTISING)     MLTPV  2   4 (ANTISING)     MLTPV  2   5 (ANTISING)
     MLTPV  2   6 (ANTISING)

       EIGENSTATES OF A SPIN-FREE HAMILTONIAN WILL BE COMPUTED BASED ON:

  a Hamiltonian matrix assumed to be diagonal with energies read from the wavefunction file(s).

  Nr of states:                   99

   State:        1   2   3   4   5   6   7   8   9  10  11  12  13  14  15  16  17  18  19  20
  JobIph:        1   1   1   1   1   1   1   1   1   1   1   1   2   2   2   3   3   3   4   4
 Root nr:        1   2   3   4   5   6   7   8   9  10  11  12   1   2   3   1   2   3   1   2

   State:       21  22  23  24  25  26  27  28  29  30  31  32  33  34  35  36  37  38  39  40
  JobIph:        4   4   4   5   5   5   5   5   5   6   7   7   7   7   7   8   8   8   8   8
 Root nr:        3   4   5   1   2   3   4   5   6   1   1   2   3   4   5   1   2   3   4   5

   State:       41  42  43  44  45  46  47  48  49  50  51  52  53  54  55  56  57  58  59  60
  JobIph:        8   9  10  10  10  10  10  11  11  11  11  11  11  12  13  13  13  14  14  14
 Root nr:        6   1   1   2   3   4   5   1   2   3   4   5   6   1   1   2   3   1   2   3

   State:       61  62  63  64  65  66  67  68  69  70  71  72  73  74  75  76  77  78  79  80
  JobIph:       14  14  14  15  15  15  15  15  16  16  16  16  16  16  17  18  18  18  18  18
 Root nr:        4   5   6   1   2   3   4   5   1   2   3   4   5   6   1   1   2   3   4   5

   State:       81  82  83  84  85  86  87  88  89  90  91  92  93  94  95  96  97  98  99
  JobIph:       19  19  19  19  19  19  20  21  21  21  21  21  22  22  22  22  22  22  23
 Root nr:        1   2   3   4   5   6   1   1   2   3   4   5   1   2   3   4   5   6   1

  HAMILTONIAN MATRIX FOR THE ORIGINAL STATES:

  Diagonal, with energies
   -149.61194316   -149.61095806   -149.56769006   -149.44647640   -149.44291914
   -149.43407006   -149.43062572   -149.40843522   -149.40588820   -149.36351027
   -149.34894944   -149.29402796   -149.50984138   -149.50912632   -149.48560748
   -149.59280657   -149.59225939   -149.56535817   -149.58940015   -149.43597094
   -149.43079100   -149.42224357   -149.36250651   -149.59222234   -149.51873271
   -149.51422788   -149.50599720   -149.50324699   -149.44611341   -149.58554978
   -149.58940015   -149.43597094   -149.43079100   -149.42224357   -149.36250651
   -149.59222234   -149.51873271   -149.51422788   -149.50599720   -149.50324699
   -149.44611341   -149.58554978   -149.61194316   -149.44647640   -149.43062572
   -149.40588820   -149.34894944   -149.60906539   -149.53140657   -149.51377641
   -149.50984138   -149.48560748   -149.42996259   -149.59280657   -149.44229357
   -149.38569925   -149.35421525   -149.60640165   -149.60570590   -149.56689660
   -149.52434521   -149.52332059   -149.48759209   -149.58785502   -149.44571908
   -149.43684253   -149.43105046   -149.37462161   -149.58812629   -149.52441481
   -149.51685834   -149.51453359   -149.50722399   -149.45189134   -149.59837193
   -149.58785502   -149.44571908   -149.43684253   -149.43105046   -149.37462161
   -149.58812629   -149.52441481   -149.51685834   -149.51453359   -149.50722399
   -149.45189134   -149.59837193   -149.61124519   -149.44229357   -149.43905617
   -149.40837341   -149.35421525   -149.60640165   -149.52434521   -149.52300823
   -149.51256689   -149.48759209   -149.43233372   -149.59645854

      OVERLAP MATRIX FOR THE ORIGINAL STATES:

  Diagonal, with elements
      1.00000000      1.00000000      1.00000000      1.00000000      1.00000000
      1.00000000      1.00000000      1.00000000      1.00000000      1.00000000
      1.00000000      1.00000000      1.00000000      1.00000000      1.00000000
      1.00000000      1.00000000      1.00000000      1.00000000      1.00000000
      1.00000000      1.00000000      1.00000000      1.00000000      1.00000000
      1.00000000      1.00000000      1.00000000      1.00000000      1.00000000
      1.00000000      1.00000000      1.00000000      1.00000000      1.00000000
      1.00000000      1.00000000      1.00000000      1.00000000      1.00000000
      1.00000000      1.00000000      1.00000000      1.00000000      1.00000000
      1.00000000      1.00000000      1.00000000      1.00000000      1.00000000
      1.00000000      1.00000000      1.00000000      1.00000000      1.00000000
      1.00000000      1.00000000      1.00000000      1.00000000      1.00000000
      1.00000000      1.00000000      1.00000000      1.00000000      1.00000000
      1.00000000      1.00000000      1.00000000      1.00000000      1.00000000
      1.00000000      1.00000000      1.00000000      1.00000000      1.00000000
      1.00000000      1.00000000      1.00000000      1.00000000      1.00000000
      1.00000000      1.00000000      1.00000000      1.00000000      1.00000000
      1.00000000      1.00000000      1.00000000      1.00000000      1.00000000
      1.00000000      1.00000000      1.00000000      1.00000000      1.00000000
      1.00000000      1.00000000      1.00000000      1.00000000

::    RASSI State    1     Total energy:    -149.61194315539967
::    RASSI State    2     Total energy:    -149.61095805859784
::    RASSI State    3     Total energy:    -149.56769005720085
::    RASSI State    4     Total energy:    -149.44647639650196
::    RASSI State    5     Total energy:    -149.44291914466083
::    RASSI State    6     Total energy:    -149.43407006487396
::    RASSI State    7     Total energy:    -149.43062572062223
::    RASSI State    8     Total energy:    -149.40843521704809
::    RASSI State    9     Total energy:    -149.40588819630958
::    RASSI State   10     Total energy:    -149.36351026903813
::    RASSI State   11     Total energy:    -149.34894944277110
::    RASSI State   12     Total energy:    -149.29402795739995
::    RASSI State   13     Total energy:    -149.50984137500060
::    RASSI State   14     Total energy:    -149.50912632063807
::    RASSI State   15     Total energy:    -149.48560747643518
::    RASSI State   16     Total energy:    -149.59280657440218
::    RASSI State   17     Total energy:    -149.59225939076128
::    RASSI State   18     Total energy:    -149.56535816593089
::    RASSI State   19     Total energy:    -149.58940015315639
::    RASSI State   20     Total energy:    -149.43597094426130
::    RASSI State   21     Total energy:    -149.43079099691235
::    RASSI State   22     Total energy:    -149.42224357245547
::    RASSI State   23     Total energy:    -149.36250651185250
::    RASSI State   24     Total energy:    -149.59222234133972
::    RASSI State   25     Total energy:    -149.51873270547179
::    RASSI State   26     Total energy:    -149.51422787711354
::    RASSI State   27     Total energy:    -149.50599719523751
::    RASSI State   28     Total energy:    -149.50324698695059
::    RASSI State   29     Total energy:    -149.44611341040766
::    RASSI State   30     Total energy:    -149.58554978360451
::    RASSI State   31     Total energy:    -149.58940015315642
::    RASSI State   32     Total energy:    -149.43597094426138
::    RASSI State   33     Total energy:    -149.43079099691238
::    RASSI State   34     Total energy:    -149.42224357245561
::    RASSI State   35     Total energy:    -149.36250651185262
::    RASSI State   36     Total energy:    -149.59222234133972
::    RASSI State   37     Total energy:    -149.51873270547188
::    RASSI State   38     Total energy:    -149.51422787711354
::    RASSI State   39     Total energy:    -149.50599719523737
::    RASSI State   40     Total energy:    -149.50324698695067
::    RASSI State   41     Total energy:    -149.44611341040761
::    RASSI State   42     Total energy:    -149.58554978360448
::    RASSI State   43     Total energy:    -149.61194315539970
::    RASSI State   44     Total energy:    -149.44647639650205
::    RASSI State   45     Total energy:    -149.43062572062209
::    RASSI State   46     Total energy:    -149.40588819630960
::    RASSI State   47     Total energy:    -149.34894944277121
::    RASSI State   48     Total energy:    -149.60906538596021
::    RASSI State   49     Total energy:    -149.53140656787932
::    RASSI State   50     Total energy:    -149.51377640511936
::    RASSI State   51     Total energy:    -149.50984137500049
::    RASSI State   52     Total energy:    -149.48560747643512
::    RASSI State   53     Total energy:    -149.42996258657718
::    RASSI State   54     Total energy:    -149.59280657440218
::    RASSI State   55     Total energy:    -149.44229356893922
::    RASSI State   56     Total energy:    -149.38569925090076
::    RASSI State   57     Total energy:    -149.35421524571592
::    RASSI State   58     Total energy:    -149.60640165263948
::    RASSI State   59     Total energy:    -149.60570590082952
::    RASSI State   60     Total energy:    -149.56689659603310
::    RASSI State   61     Total energy:    -149.52434520633417
::    RASSI State   62     Total energy:    -149.52332058857689
::    RASSI State   63     Total energy:    -149.48759209047353
::    RASSI State   64     Total energy:    -149.58785502258942
::    RASSI State   65     Total energy:    -149.44571907562545
::    RASSI State   66     Total energy:    -149.43684253034340
::    RASSI State   67     Total energy:    -149.43105045571599
::    RASSI State   68     Total energy:    -149.37462160969150
::    RASSI State   69     Total energy:    -149.58812628841343
::    RASSI State   70     Total energy:    -149.52441481106135
::    RASSI State   71     Total energy:    -149.51685833960215
::    RASSI State   72     Total energy:    -149.51453358578368
::    RASSI State   73     Total energy:    -149.50722398927269
::    RASSI State   74     Total energy:    -149.45189133655455
::    RASSI State   75     Total energy:    -149.59837192770442
::    RASSI State   76     Total energy:    -149.58785502258942
::    RASSI State   77     Total energy:    -149.44571907562536
::    RASSI State   78     Total energy:    -149.43684253034334
::    RASSI State   79     Total energy:    -149.43105045571593
::    RASSI State   80     Total energy:    -149.37462160969145
::    RASSI State   81     Total energy:    -149.58812628841341
::    RASSI State   82     Total energy:    -149.52441481106138
::    RASSI State   83     Total energy:    -149.51685833960212
::    RASSI State   84     Total energy:    -149.51453358578354
::    RASSI State   85     Total energy:    -149.50722398927272
::    RASSI State   86     Total energy:    -149.45189133655455
::    RASSI State   87     Total energy:    -149.59837192770453
::    RASSI State   88     Total energy:    -149.61124518668424
::    RASSI State   89     Total energy:    -149.44229356893925
::    RASSI State   90     Total energy:    -149.43905617061617
::    RASSI State   91     Total energy:    -149.40837340809230
::    RASSI State   92     Total energy:    -149.35421524571592
::    RASSI State   93     Total energy:    -149.60640165263953
::    RASSI State   94     Total energy:    -149.52434520633417
::    RASSI State   95     Total energy:    -149.52300822978083
::    RASSI State   96     Total energy:    -149.51256689306021
::    RASSI State   97     Total energy:    -149.48759209047350
::    RASSI State   98     Total energy:    -149.43233372171647
::    RASSI State   99     Total energy:    -149.59645853602731



      ****************************************************************************************************
      *                                                                                                  *
      *                                         Spin-free section                                        *
      *                                                                                                  *
      *                 Note: index according to input order, order according to energy.                 *
      *                                                                                                  *
      ****************************************************************************************************



  SPIN-FREE ENERGIES:
  (Shifted by EMIN (a.u.) =       -149.6119431554)

 SF State       Relative EMIN(au)   Rel lowest level(eV)    D:o, cm**(-1)      L_eff   Abs_M

    43             0.0000000000        0.0000000000              0.0000         2.0     2.0
     1             0.0000000000        0.0000000000              0.0000         2.0     2.0
    88             0.0006979687        0.0189926963            153.1864         1.0     0.0
     2             0.0009850968        0.0268058496            216.2038         0.9     0.0
    48             0.0028777694        0.0783080957            631.5974         1.1     0.0
    93             0.0055415028        0.1507919720           1216.2193         2.0     2.0
    58             0.0055415028        0.1507919720           1216.2193         2.0     2.0
    59             0.0062372546        0.1697243432           1368.9191         0.9     0.0
    87             0.0135712277        0.3692919186           2978.5402         1.9     1.0
    75             0.0135712277        0.3692919186           2978.5402         1.9     1.0
    99             0.0154846194        0.4213579586           3398.4811         1.0     0.0
    16             0.0191365810        0.5207328970           4199.9941         2.0     2.0
    54             0.0191365810        0.5207328970           4199.9941         2.0     2.0
    17             0.0196837646        0.5356225224           4320.0870         0.9     0.0
    24             0.0197208141        0.5366306885           4328.2184         1.9     1.0
    36             0.0197208141        0.5366306885           4328.2184         1.9     1.0
    31             0.0225430022        0.6134263412           4947.6171         1.0     1.0
    19             0.0225430022        0.6134263412           4947.6171         1.0     1.0
    69             0.0238168670        0.6480899667           5227.1981         1.0     1.0
    81             0.0238168670        0.6480899667           5227.1981         1.0     1.0
    64             0.0240881328        0.6554714858           5286.7341         1.9     1.0
    76             0.0240881328        0.6554714858           5286.7341         1.9     1.0
    30             0.0263933718        0.7182002343           5792.6755         1.0     1.0
    42             0.0263933718        0.7182002343           5792.6755         1.0     1.0
     3             0.0442530982        1.2041881477           9712.4324         1.6     0.0
    60             0.0450465594        1.2257793260           9886.5770         1.5     0.0
    18             0.0465849895        1.2676421417          10224.2234         1.5     0.0
    49             0.0805365875        2.1915121900          17675.7379         2.7     0.0
    82             0.0875283443        2.3817675853          19210.2511         2.3     1.0
    70             0.0875283443        2.3817675853          19210.2511         2.3     1.0
    61             0.0875979491        2.3836616264          19225.5276         2.6     2.0
    94             0.0875979491        2.3836616264          19225.5276         2.6     2.0
    62             0.0886225668        2.4115428959          19450.4052         1.9     0.0
    95             0.0889349256        2.4200426118          19518.9600         2.6     0.0
    37             0.0932104499        2.5363855551          20457.3291         2.6     1.0
    25             0.0932104499        2.5363855552          20457.3291         2.6     1.0
    71             0.0950848158        2.5873896488          20868.7049         2.4     1.0
    83             0.0950848158        2.5873896488          20868.7049         2.4     1.0
    72             0.0974095696        2.6506494229          21378.9294         3.0     3.0
    84             0.0974095696        2.6506494229          21378.9294         3.0     3.0
    26             0.0977152783        2.6589681796          21446.0247         2.0     1.0
    38             0.0977152783        2.6589681796          21446.0247         2.0     1.0
    50             0.0981667503        2.6712533584          21545.1113         1.1     0.0
    96             0.0993762623        2.7041658582          21810.5685         1.4     0.0
    13             0.1021017804        2.7783309828          22408.7506         2.6     2.0
    51             0.1021017804        2.7783309828          22408.7506         2.6     2.0
    14             0.1028168348        2.7977886033          22565.6869         2.0     0.0
    85             0.1047191661        2.8495536768          22983.2004         1.3     1.0
    73             0.1047191661        2.8495536768          22983.2004         1.3     1.0
    27             0.1059459602        2.8829364432          23252.4506         3.0     3.0
    39             0.1059459602        2.8829364432          23252.4506         3.0     3.0
    40             0.1086961684        2.9577734231          23856.0515         1.5     1.0
    28             0.1086961684        2.9577734231          23856.0515         1.5     1.0
    63             0.1243510649        3.3837648578          27291.9041         2.4     2.0
    97             0.1243510649        3.3837648578          27291.9041         2.4     2.0
    15             0.1263356790        3.4377689570          27727.4766         2.4     2.0
    52             0.1263356790        3.4377689570          27727.4766         2.4     2.0
    74             0.1600518188        4.3552318620          35127.3139         1.0     1.0
    86             0.1600518188        4.3552318620          35127.3139         1.0     1.0
    44             0.1654667589        4.5025798872          36315.7559         3.7     2.0
     4             0.1654667589        4.5025798872          36315.7559         3.7     2.0
    29             0.1658297450        4.5124572421          36395.4222         1.0     1.0
    41             0.1658297450        4.5124572421          36395.4222         1.0     1.0
    65             0.1662240798        4.5231876381          36481.9686         3.6     1.0
    77             0.1662240798        4.5231876381          36481.9686         3.6     1.0
     5             0.1690240107        4.5993776411          37096.4824         3.7     0.0
    89             0.1696495865        4.6164004236          37233.7804         2.9     2.0
    55             0.1696495865        4.6164004236          37233.7804         2.9     2.0
    90             0.1728869848        4.7044945198          37944.3073         2.5     0.0
    66             0.1751006251        4.7647307403          38430.1451         3.9     3.0
    78             0.1751006251        4.7647307403          38430.1451         3.9     3.0
    32             0.1759722111        4.7884478058          38621.4362         2.5     1.0
    20             0.1759722111        4.7884478058          38621.4362         2.5     1.0
     6             0.1778730905        4.8401733691          39038.6310         1.2     0.0
    98             0.1796094337        4.8874216734          39419.7142         1.1     0.0
    67             0.1808926997        4.9223411202          39701.3586         2.4     1.0
    79             0.1808926997        4.9223411202          39701.3586         2.4     1.0
    33             0.1811521585        4.9294013539          39758.3032         1.7     1.0
    21             0.1811521585        4.9294013539          39758.3032         1.7     1.0
     7             0.1813174348        4.9338987509          39794.5772         2.1     2.0
    45             0.1813174348        4.9338987509          39794.5772         2.1     2.0
    53             0.1819805688        4.9519435475          39940.1183         1.1     0.0
    34             0.1896995829        5.1619886222          41634.2460         3.0     3.0
    22             0.1896995829        5.1619886222          41634.2460         3.0     3.0
     8             0.2035079384        5.5377331146          44664.8297         1.7     0.0
    91             0.2035697473        5.5394150220          44678.3952         1.6     0.0
    46             0.2060549591        5.6070410797          45223.8362         4.0     4.0
     9             0.2060549591        5.6070410797          45223.8362         4.0     4.0
    56             0.2262439045        6.1564102711          49654.7975         1.9     0.0
    68             0.2373215457        6.4578482448          52086.0588         1.9     1.0
    80             0.2373215457        6.4578482448          52086.0588         1.9     1.0
    10             0.2484328864        6.7602032270          54524.7162         1.8     0.0
    35             0.2494366435        6.7875168515          54745.0154         1.9     1.0
    23             0.2494366435        6.7875168515          54745.0154         1.9     1.0
    57             0.2577279097        7.0131336968          56564.7380         2.0     2.0
    92             0.2577279097        7.0131336968          56564.7380         2.0     2.0
    47             0.2629937126        7.1564234946          57720.4481         2.1     2.0
    11             0.2629937126        7.1564234946          57720.4481         2.1     2.0
    12             0.3179151980        8.6509132462          69774.3209         0.3     0.0

++ Dipole transition strengths (spin-free states):
   -----------------------------------------------
     for osc. strength at least  1.00000000E-05

      From   To        Osc. strength     Einstein coefficients Ax, Ay, Az (sec-1)    Total A (sec-1)
     -----------------------------------------------------------------------------------------------
        43   35       2.09115791E-05  4.18040367E+04  0.00000000E+00  0.00000000E+00  4.18040367E+04
        43   23       2.09115791E-05  0.00000000E+00  4.18040367E+04  0.00000000E+00  4.18040367E+04
         1   35       2.09115791E-05  0.00000000E+00  4.18040367E+04  0.00000000E+00  4.18040367E+04
         1   23       2.09115791E-05  4.18040367E+04  0.00000000E+00  0.00000000E+00  4.18040367E+04
        88   68       2.77073010E-05  0.00000000E+00  4.98449467E+04  0.00000000E+00  4.98449467E+04
        88   80       2.77073010E-05  4.98449467E+04  0.00000000E+00  0.00000000E+00  4.98449467E+04
         2   35       2.52980631E-05  0.00000000E+00  5.01743279E+04  0.00000000E+00  5.01743279E+04
         2   23       2.52980631E-05  5.01743279E+04  0.00000000E+00  0.00000000E+00  5.01743279E+04
        48   95       4.90289371E-05  0.00000000E+00  0.00000000E+00  1.16664129E+04  1.16664129E+04
        48   98       3.31596468E-05  0.00000000E+00  0.00000000E+00  3.32774096E+04  3.32774096E+04
        87   42       7.44619857E-05  0.00000000E+00  0.00000000E+00  3.93338813E+02  3.93338813E+02
        75   30       7.44619857E-05  0.00000000E+00  0.00000000E+00  3.93338813E+02  3.93338813E+02
        24   69       1.25858565E-05  0.00000000E+00  0.00000000E+00  6.78460828E+00  6.78460828E+00
        24   71       3.99126612E-05  0.00000000E+00  0.00000000E+00  7.28365673E+03  7.28365673E+03
        24   73       3.06158184E-05  0.00000000E+00  0.00000000E+00  7.10686012E+03  7.10686012E+03
        36   81       1.25858565E-05  0.00000000E+00  0.00000000E+00  6.78460828E+00  6.78460828E+00
        36   83       3.99126612E-05  0.00000000E+00  0.00000000E+00  7.28365673E+03  7.28365673E+03
        36   85       3.06158184E-05  0.00000000E+00  0.00000000E+00  7.10686012E+03  7.10686012E+03
        69   28       1.07484722E-05  0.00000000E+00  0.00000000E+00  2.48806210E+03  2.48806210E+03
        81   40       1.07484722E-05  0.00000000E+00  0.00000000E+00  2.48806210E+03  2.48806210E+03
        49   95       7.02960181E-05  0.00000000E+00  0.00000000E+00  1.59304600E+02  1.59304600E+02
        49   98       1.78792337E-04  0.00000000E+00  0.00000000E+00  5.63857113E+04  5.63857113E+04
        82   41       1.94300845E-04  0.00000000E+00  0.00000000E+00  3.82758315E+04  3.82758315E+04
        70   29       1.94300845E-04  0.00000000E+00  0.00000000E+00  3.82758315E+04  3.82758315E+04
        95   50       9.02249543E-05  0.00000000E+00  0.00000000E+00  2.47065809E+02  2.47065809E+02
        95   53       3.44364943E-04  0.00000000E+00  0.00000000E+00  9.57903810E+04  9.57903810E+04
        37   85       1.63404404E-05  0.00000000E+00  0.00000000E+00  6.95389938E+01  6.95389938E+01
        37   86       1.03106186E-04  0.00000000E+00  0.00000000E+00  1.48008370E+04  1.48008370E+04
        25   73       1.63404404E-05  0.00000000E+00  0.00000000E+00  6.95389938E+01  6.95389938E+01
        25   74       1.03106186E-04  0.00000000E+00  0.00000000E+00  1.48008370E+04  1.48008370E+04
        71   28       7.01631296E-05  0.00000000E+00  0.00000000E+00  4.17659542E+02  4.17659542E+02
        83   40       7.01631296E-05  0.00000000E+00  0.00000000E+00  4.17659542E+02  4.17659542E+02
        72   27       3.40211409E-05  0.00000000E+00  0.00000000E+00  7.96541319E+01  7.96541319E+01
        84   39       3.40211409E-05  0.00000000E+00  0.00000000E+00  7.96541319E+01  7.96541319E+01
        26   73       2.14455622E-05  0.00000000E+00  0.00000000E+00  3.38007771E+01  3.38007771E+01
        26   74       5.74476339E-05  0.00000000E+00  0.00000000E+00  7.17246476E+03  7.17246476E+03
        38   85       2.14455622E-05  0.00000000E+00  0.00000000E+00  3.38007771E+01  3.38007771E+01
        38   86       5.74476339E-05  0.00000000E+00  0.00000000E+00  7.17246476E+03  7.17246476E+03
        50   98       1.65284911E-04  0.00000000E+00  0.00000000E+00  3.52247761E+04  3.52247761E+04
        96   53       1.14865286E-05  0.00000000E+00  0.00000000E+00  2.51828605E+03  2.51828605E+03
        44   89       4.39931091E-05  0.00000000E+00  0.00000000E+00  2.47306460E+01  2.47306460E+01
        44   92       2.16369941E-04  0.00000000E+00  0.00000000E+00  5.91759916E+04  5.91759916E+04
         4   55       4.39931091E-05  0.00000000E+00  0.00000000E+00  2.47306460E+01  2.47306460E+01
         4   57       2.16369941E-04  0.00000000E+00  0.00000000E+00  5.91759916E+04  5.91759916E+04
        65   20       1.13418129E-05  0.00000000E+00  0.00000000E+00  3.46286935E+01  3.46286935E+01
        65   23       3.31967292E-04  0.00000000E+00  0.00000000E+00  7.38556942E+04  7.38556942E+04
        77   32       1.13418129E-05  0.00000000E+00  0.00000000E+00  3.46286935E+01  3.46286935E+01
        77   35       3.31967292E-04  0.00000000E+00  0.00000000E+00  7.38556942E+04  7.38556942E+04
         5   56       4.40231699E-04  0.00000000E+00  0.00000000E+00  4.63112270E+04  4.63112270E+04
        89   45       6.67436623E-05  0.00000000E+00  0.00000000E+00  2.91945957E+02  2.91945957E+02
        89   47       2.92877578E-04  0.00000000E+00  0.00000000E+00  8.19919085E+04  8.19919085E+04
        55    7       6.67436623E-05  0.00000000E+00  0.00000000E+00  2.91945957E+02  2.91945957E+02
        55   11       2.92877578E-04  0.00000000E+00  0.00000000E+00  8.19919085E+04  8.19919085E+04
        66   22       8.17094648E-05  0.00000000E+00  0.00000000E+00  5.59534617E+02  5.59534617E+02
        78   34       8.17094648E-05  0.00000000E+00  0.00000000E+00  5.59534617E+02  5.59534617E+02
        32   80       2.31441315E-04  0.00000000E+00  0.00000000E+00  2.79879755E+04  2.79879755E+04
        20   68       2.31441315E-04  0.00000000E+00  0.00000000E+00  2.79879755E+04  2.79879755E+04
         6   56       1.01520521E-04  0.00000000E+00  0.00000000E+00  7.63187964E+03  7.63187964E+03
        67   23       1.01097519E-05  0.00000000E+00  0.00000000E+00  1.52612308E+03  1.52612308E+03
        79   35       1.01097519E-05  0.00000000E+00  0.00000000E+00  1.52612308E+03  1.52612308E+03
        33   80       1.13104643E-05  0.00000000E+00  0.00000000E+00  1.14654390E+03  1.14654390E+03
        21   68       1.13104643E-05  0.00000000E+00  0.00000000E+00  1.14654390E+03  1.14654390E+03
         7   57       8.59337014E-05  0.00000000E+00  0.00000000E+00  1.61205628E+04  1.61205628E+04
        45   92       8.59337014E-05  0.00000000E+00  0.00000000E+00  1.61205628E+04  1.61205628E+04
        56   10       1.42466413E-04  0.00000000E+00  0.00000000E+00  2.25371047E+03  2.25371047E+03
        56   12       7.49044795E-04  0.00000000E+00  0.00000000E+00  2.02248539E+05  2.02248539E+05
        68   23       1.86995528E-05  0.00000000E+00  0.00000000E+00  8.81852511E+01  8.81852511E+01
        80   35       1.86995528E-05  0.00000000E+00  0.00000000E+00  8.81852511E+01  8.81852511E+01
     -----------------------------------------------------------------------------------------------
--

++ Velocity transition strengths (spin-free states):
   -------------------------------------------------
     for osc. strength at least  1.00000000E-05

      From   To        Osc. strength     Einstein coefficients Ax, Ay, Az (sec-1)    Total A (sec-1)
     -----------------------------------------------------------------------------------------------
        43   31       3.79502524E-04  6.19653719E+03  0.00000000E+00  0.00000000E+00  6.19653719E+03
        43   19       3.79502524E-04  0.00000000E+00  6.19653719E+03  0.00000000E+00  6.19653719E+03
        43   89       3.51879678E-05  0.00000000E+00  0.00000000E+00  3.25394853E+04  3.25394853E+04
        43   32       1.52510413E-05  1.51739470E+04  0.00000000E+00  0.00000000E+00  1.51739470E+04
        43   20       1.52510413E-05  0.00000000E+00  1.51739470E+04  0.00000000E+00  1.51739470E+04
        43   34       1.68034449E-05  1.94286204E+04  0.00000000E+00  0.00000000E+00  1.94286204E+04
        43   22       1.68034449E-05  0.00000000E+00  1.94286204E+04  0.00000000E+00  1.94286204E+04
        43   35       4.43791678E-05  8.87177552E+04  0.00000000E+00  0.00000000E+00  8.87177552E+04
        43   23       4.43791678E-05  0.00000000E+00  8.87177552E+04  0.00000000E+00  8.87177552E+04
        43   92       2.87244420E-05  0.00000000E+00  0.00000000E+00  6.13035164E+04  6.13035164E+04
         1   31       3.79502524E-04  0.00000000E+00  6.19653719E+03  0.00000000E+00  6.19653719E+03
         1   19       3.79502524E-04  6.19653719E+03  0.00000000E+00  0.00000000E+00  6.19653719E+03
         1   55       3.51879678E-05  0.00000000E+00  0.00000000E+00  3.25394853E+04  3.25394853E+04
         1   32       1.52510413E-05  0.00000000E+00  1.51739470E+04  0.00000000E+00  1.51739470E+04
         1   20       1.52510413E-05  1.51739470E+04  0.00000000E+00  0.00000000E+00  1.51739470E+04
         1   34       1.68034449E-05  0.00000000E+00  1.94286204E+04  0.00000000E+00  1.94286204E+04
         1   22       1.68034449E-05  1.94286204E+04  0.00000000E+00  0.00000000E+00  1.94286204E+04
         1   35       4.43791678E-05  0.00000000E+00  8.87177552E+04  0.00000000E+00  8.87177552E+04
         1   23       4.43791678E-05  8.87177552E+04  0.00000000E+00  0.00000000E+00  8.87177552E+04
         1   57       2.87244420E-05  0.00000000E+00  0.00000000E+00  6.13035164E+04  6.13035164E+04
        88   65       2.52668443E-05  0.00000000E+00  2.22430793E+04  0.00000000E+00  2.22430793E+04
        88   77       2.52668443E-05  2.22430793E+04  0.00000000E+00  0.00000000E+00  2.22430793E+04
        88   67       3.50360973E-05  0.00000000E+00  3.65519695E+04  0.00000000E+00  3.65519695E+04
        88   79       3.50360973E-05  3.65519695E+04  0.00000000E+00  0.00000000E+00  3.65519695E+04
        88   68       5.56105164E-05  0.00000000E+00  1.00042340E+05  0.00000000E+00  1.00042340E+05
        88   80       5.56105164E-05  1.00042340E+05  0.00000000E+00  0.00000000E+00  1.00042340E+05
         2   33       3.69359083E-05  0.00000000E+00  3.85221447E+04  0.00000000E+00  3.85221447E+04
         2   21       3.69359083E-05  3.85221447E+04  0.00000000E+00  0.00000000E+00  3.85221447E+04
         2   56       5.55016711E-05  0.00000000E+00  0.00000000E+00  9.04858155E+04  9.04858155E+04
         2   35       3.44036482E-05  0.00000000E+00  6.82336794E+04  0.00000000E+00  6.82336794E+04
         2   23       3.44036482E-05  6.82336794E+04  0.00000000E+00  0.00000000E+00  6.82336794E+04
        48   95       5.01967115E-05  0.00000000E+00  0.00000000E+00  1.19442843E+04  1.19442843E+04
        48   96       2.85169493E-05  0.00000000E+00  0.00000000E+00  8.53208175E+03  8.53208175E+03
        48   98       3.43630053E-05  0.00000000E+00  0.00000000E+00  3.44850418E+04  3.44850418E+04
        93   69       3.96072897E-04  0.00000000E+00  4.25028538E+03  0.00000000E+00  4.25028538E+03
        93   81       3.96072897E-04  4.25028538E+03  0.00000000E+00  0.00000000E+00  4.25028538E+03
        93   82       1.22787573E-05  2.65187843E+03  0.00000000E+00  0.00000000E+00  2.65187843E+03
        93   70       1.22787573E-05  0.00000000E+00  2.65187843E+03  0.00000000E+00  2.65187843E+03
        93   72       2.98855203E-05  0.00000000E+00  8.10402663E+03  0.00000000E+00  8.10402663E+03
        93   84       2.98855203E-05  8.10402663E+03  0.00000000E+00  0.00000000E+00  8.10402663E+03
        93   74       2.71224461E-05  0.00000000E+00  2.08043762E+04  0.00000000E+00  2.08043762E+04
        93   86       2.71224461E-05  2.08043762E+04  0.00000000E+00  0.00000000E+00  2.08043762E+04
        58   69       3.96072897E-04  4.25028538E+03  0.00000000E+00  0.00000000E+00  4.25028538E+03
        58   81       3.96072897E-04  0.00000000E+00  4.25028538E+03  0.00000000E+00  4.25028538E+03
        58   82       1.22787573E-05  0.00000000E+00  2.65187843E+03  0.00000000E+00  2.65187843E+03
        58   70       1.22787573E-05  2.65187843E+03  0.00000000E+00  0.00000000E+00  2.65187843E+03
        58   72       2.98855203E-05  8.10402663E+03  0.00000000E+00  0.00000000E+00  8.10402663E+03
        58   84       2.98855203E-05  0.00000000E+00  8.10402663E+03  0.00000000E+00  8.10402663E+03
        58   74       2.71224461E-05  2.08043762E+04  0.00000000E+00  0.00000000E+00  2.08043762E+04
        58   86       2.71224461E-05  0.00000000E+00  2.08043762E+04  0.00000000E+00  2.08043762E+04
        59   71       1.53095991E-05  3.88298510E+03  0.00000000E+00  0.00000000E+00  3.88298510E+03
        59   83       1.53095991E-05  0.00000000E+00  3.88298510E+03  0.00000000E+00  3.88298510E+03
        59   74       2.04888259E-05  1.55748142E+04  0.00000000E+00  0.00000000E+00  1.55748142E+04
        59   86       2.04888259E-05  0.00000000E+00  1.55748142E+04  0.00000000E+00  1.55748142E+04
        87   99       2.78255966E-04  3.27312906E+01  0.00000000E+00  0.00000000E+00  3.27312906E+01
        87   42       1.14312931E-03  0.00000000E+00  0.00000000E+00  6.03847886E+03  6.03847886E+03
        75   99       2.78255966E-04  0.00000000E+00  3.27312906E+01  0.00000000E+00  3.27312906E+01
        75   30       1.14312931E-03  0.00000000E+00  0.00000000E+00  6.03847886E+03  6.03847886E+03
        16   30       6.66445429E-04  1.12762497E+03  0.00000000E+00  0.00000000E+00  1.12762497E+03
        16   42       6.66445429E-04  0.00000000E+00  1.12762497E+03  0.00000000E+00  1.12762497E+03
        54   30       6.66445429E-04  0.00000000E+00  1.12762497E+03  0.00000000E+00  1.12762497E+03
        54   42       6.66445429E-04  1.12762497E+03  0.00000000E+00  0.00000000E+00  1.12762497E+03
        24   69       1.48727937E-03  0.00000000E+00  0.00000000E+00  8.01741852E+02  8.01741852E+02
        24   49       2.23570051E-05  0.00000000E+00  2.65678848E+03  0.00000000E+00  2.65678848E+03
        24   71       2.44724844E-05  0.00000000E+00  0.00000000E+00  4.46598073E+03  4.46598073E+03
        24   73       1.58236378E-05  0.00000000E+00  0.00000000E+00  3.67314632E+03  3.67314632E+03
        24   74       1.00440222E-05  0.00000000E+00  0.00000000E+00  6.35515018E+03  6.35515018E+03
        36   81       1.48727937E-03  0.00000000E+00  0.00000000E+00  8.01741852E+02  8.01741852E+02
        36   49       2.23570051E-05  2.65678848E+03  0.00000000E+00  0.00000000E+00  2.65678848E+03
        36   83       2.44724844E-05  0.00000000E+00  0.00000000E+00  4.46598073E+03  4.46598073E+03
        36   85       1.58236378E-05  0.00000000E+00  0.00000000E+00  3.67314632E+03  3.67314632E+03
        36   86       1.00440222E-05  0.00000000E+00  0.00000000E+00  6.35515018E+03  6.35515018E+03
        31   76       1.46009843E-03  0.00000000E+00  0.00000000E+00  1.12001383E+02  1.12001383E+02
        31    3       2.15200024E-03  0.00000000E+00  3.25894240E+04  0.00000000E+00  3.25894240E+04
        31   44       1.66869819E-05  1.09521031E+04  0.00000000E+00  0.00000000E+00  1.09521031E+04
        31    4       1.66869819E-05  0.00000000E+00  1.09521031E+04  0.00000000E+00  1.09521031E+04
        31    5       1.60092424E-05  0.00000000E+00  1.10368288E+04  0.00000000E+00  1.10368288E+04
        31    6       1.46873083E-05  0.00000000E+00  1.13858189E+04  0.00000000E+00  1.13858189E+04
        19   64       1.46009843E-03  0.00000000E+00  0.00000000E+00  1.12001383E+02  1.12001383E+02
        19    3       2.15200024E-03  3.25894240E+04  0.00000000E+00  0.00000000E+00  3.25894240E+04
        19   44       1.66869819E-05  0.00000000E+00  1.09521031E+04  0.00000000E+00  1.09521031E+04
        19    4       1.66869819E-05  1.09521031E+04  0.00000000E+00  0.00000000E+00  1.09521031E+04
        19    5       1.60092424E-05  1.10368288E+04  0.00000000E+00  0.00000000E+00  1.10368288E+04
        19    6       1.46873083E-05  1.13858189E+04  0.00000000E+00  0.00000000E+00  1.13858189E+04
        69   60       2.12370719E-03  3.07533849E+04  0.00000000E+00  0.00000000E+00  3.07533849E+04
        69   62       1.46682598E-05  1.97931942E+03  0.00000000E+00  0.00000000E+00  1.97931942E+03
        69   25       3.49408276E-05  0.00000000E+00  0.00000000E+00  5.40608281E+03  5.40608281E+03
        69   26       2.55974300E-05  0.00000000E+00  0.00000000E+00  4.49135570E+03  4.49135570E+03
        81   60       2.12370719E-03  0.00000000E+00  3.07533849E+04  0.00000000E+00  3.07533849E+04
        81   62       1.46682598E-05  0.00000000E+00  1.97931942E+03  0.00000000E+00  1.97931942E+03
        81   37       3.49408276E-05  0.00000000E+00  0.00000000E+00  5.40608281E+03  5.40608281E+03
        81   38       2.55974300E-05  0.00000000E+00  0.00000000E+00  4.49135570E+03  4.49135570E+03
        64   21       1.51610098E-05  0.00000000E+00  0.00000000E+00  1.20169004E+04  1.20169004E+04
        76   33       1.51610098E-05  0.00000000E+00  0.00000000E+00  1.20169004E+04  1.20169004E+04
        30   18       2.09031225E-03  2.73819440E+04  0.00000000E+00  0.00000000E+00  2.73819440E+04
        42   18       2.09031225E-03  0.00000000E+00  2.73819440E+04  0.00000000E+00  2.73819440E+04
         3   33       1.55680911E-05  0.00000000E+00  9.37447991E+03  0.00000000E+00  9.37447991E+03
         3   21       1.55680911E-05  9.37447990E+03  0.00000000E+00  0.00000000E+00  9.37447990E+03
        49   95       7.95334894E-04  0.00000000E+00  0.00000000E+00  1.80238527E+03  1.80238527E+03
        49   37       6.25582403E-04  3.22859361E+03  0.00000000E+00  0.00000000E+00  3.22859361E+03
        49   25       6.25582403E-04  0.00000000E+00  3.22859361E+03  0.00000000E+00  3.22859361E+03
        49   96       8.31699990E-04  0.00000000E+00  0.00000000E+00  9.48471715E+03  9.48471715E+03
        49   40       3.87089751E-05  9.86222553E+02  0.00000000E+00  0.00000000E+00  9.86222553E+02
        49   28       3.87089751E-05  0.00000000E+00  9.86222553E+02  0.00000000E+00  9.86222553E+02
        49   29       7.93999845E-05  0.00000000E+00  1.85592185E+04  0.00000000E+00  1.85592185E+04
        49   41       7.93999845E-05  1.85592185E+04  0.00000000E+00  0.00000000E+00  1.85592185E+04
        49   98       9.90430895E-05  0.00000000E+00  0.00000000E+00  3.12352036E+04  3.12352036E+04
        82   61       4.10934550E-04  0.00000000E+00  6.39677406E-02  0.00000000E+00  6.39677406E-02
        82   94       4.10934550E-04  6.39677406E-02  0.00000000E+00  0.00000000E+00  6.39677406E-02
        82   62       2.58495161E-03  0.00000000E+00  9.94430808E+01  0.00000000E+00  9.94430808E+01
        82   95       1.58575619E-03  1.00803814E+02  0.00000000E+00  0.00000000E+00  1.00803814E+02
        82   37       1.03853949E-04  0.00000000E+00  0.00000000E+00  1.07733929E+02  1.07733929E+02
        82   38       1.09274467E-05  0.00000000E+00  0.00000000E+00  3.64348142E+01  3.64348142E+01
        82   96       2.58478485E-04  1.16578741E+03  0.00000000E+00  0.00000000E+00  1.16578741E+03
        82   40       1.44035011E-05  0.00000000E+00  0.00000000E+00  2.07363058E+02  2.07363058E+02
        82   41       3.79081932E-05  0.00000000E+00  0.00000000E+00  7.46763410E+03  7.46763410E+03
        82   98       3.88933762E-05  1.05956456E+04  0.00000000E+00  0.00000000E+00  1.05956456E+04
        70   61       4.10934550E-04  6.39677406E-02  0.00000000E+00  0.00000000E+00  6.39677406E-02
        70   94       4.10934551E-04  0.00000000E+00  6.39677406E-02  0.00000000E+00  6.39677406E-02
        70   62       2.58495161E-03  9.94430808E+01  0.00000000E+00  0.00000000E+00  9.94430808E+01
        70   95       1.58575619E-03  0.00000000E+00  1.00803814E+02  0.00000000E+00  1.00803814E+02
        70   25       1.03853949E-04  0.00000000E+00  0.00000000E+00  1.07733929E+02  1.07733929E+02
        70   26       1.09274467E-05  0.00000000E+00  0.00000000E+00  3.64348142E+01  3.64348142E+01
        70   96       2.58478485E-04  0.00000000E+00  1.16578741E+03  0.00000000E+00  1.16578741E+03
        70   28       1.44035011E-05  0.00000000E+00  0.00000000E+00  2.07363058E+02  2.07363058E+02
        70   29       3.79081932E-05  0.00000000E+00  0.00000000E+00  7.46763410E+03  7.46763410E+03
        70   98       3.88933762E-05  0.00000000E+00  1.05956456E+04  0.00000000E+00  1.05956456E+04
        61   71       1.51716557E-04  2.73239868E+02  0.00000000E+00  0.00000000E+00  2.73239868E+02
        61   83       1.51716557E-04  0.00000000E+00  2.73239868E+02  0.00000000E+00  2.73239868E+02
        61   72       3.52334323E-05  1.08980131E+02  0.00000000E+00  0.00000000E+00  1.08980131E+02
        61   84       3.52334323E-05  0.00000000E+00  1.08980131E+02  0.00000000E+00  1.08980131E+02
        61   13       4.80964623E-05  0.00000000E+00  0.00000000E+00  3.25079436E+02  3.25079436E+02
        61   85       9.34754533E-05  0.00000000E+00  8.80395328E+02  0.00000000E+00  8.80395328E+02
        61   73       9.34754533E-05  8.80395328E+02  0.00000000E+00  0.00000000E+00  8.80395328E+02
        61   74       8.46459331E-05  1.42771050E+04  0.00000000E+00  0.00000000E+00  1.42771050E+04
        61   86       8.46459331E-05  0.00000000E+00  1.42771050E+04  0.00000000E+00  1.42771050E+04
        94   71       1.51716557E-04  0.00000000E+00  2.73239868E+02  0.00000000E+00  2.73239868E+02
        94   83       1.51716557E-04  2.73239868E+02  0.00000000E+00  0.00000000E+00  2.73239868E+02
        94   72       3.52334323E-05  0.00000000E+00  1.08980131E+02  0.00000000E+00  1.08980131E+02
        94   84       3.52334323E-05  1.08980131E+02  0.00000000E+00  0.00000000E+00  1.08980131E+02
        94   51       4.80964623E-05  0.00000000E+00  0.00000000E+00  3.25079436E+02  3.25079436E+02
        94   85       9.34754533E-05  8.80395328E+02  0.00000000E+00  0.00000000E+00  8.80395328E+02
        94   73       9.34754533E-05  0.00000000E+00  8.80395328E+02  0.00000000E+00  8.80395328E+02
        94   74       8.46459331E-05  0.00000000E+00  1.42771050E+04  0.00000000E+00  1.42771050E+04
        94   86       8.46459331E-05  1.42771050E+04  0.00000000E+00  0.00000000E+00  1.42771050E+04
        62   71       8.12601423E-05  1.09032466E+02  0.00000000E+00  0.00000000E+00  1.09032466E+02
        62   83       8.12601423E-05  0.00000000E+00  1.09032466E+02  0.00000000E+00  1.09032466E+02
        62   14       4.86207089E-05  0.00000000E+00  0.00000000E+00  3.14744513E+02  3.14744513E+02
        62   85       1.14748228E-04  0.00000000E+00  9.55267797E+02  0.00000000E+00  9.55267797E+02
        62   73       1.14748228E-04  9.55267797E+02  0.00000000E+00  0.00000000E+00  9.55267797E+02
        95   71       1.87000811E-03  0.00000000E+00  2.27242257E+03  0.00000000E+00  2.27242257E+03
        95   83       1.87000811E-03  2.27242257E+03  0.00000000E+00  0.00000000E+00  2.27242257E+03
        95   50       1.74132749E-03  0.00000000E+00  0.00000000E+00  4.76833143E+03  4.76833143E+03
        95   85       1.59258710E-04  1.27485695E+03  0.00000000E+00  0.00000000E+00  1.27485695E+03
        95   73       1.59258710E-04  0.00000000E+00  1.27485695E+03  0.00000000E+00  1.27485695E+03
        95   74       2.52236249E-04  0.00000000E+00  4.09886801E+04  0.00000000E+00  4.09886801E+04
        95   86       2.52236249E-04  4.09886801E+04  0.00000000E+00  0.00000000E+00  4.09886801E+04
        95   53       1.67518149E-05  0.00000000E+00  0.00000000E+00  4.65977378E+03  4.65977378E+03
        37   83       4.31294860E-04  0.00000000E+00  0.00000000E+00  4.86848572E+01  4.86848572E+01
        37   85       5.57628671E-04  0.00000000E+00  0.00000000E+00  2.37306558E+03  2.37306558E+03
        37   86       6.75528379E-05  0.00000000E+00  0.00000000E+00  9.69717321E+03  9.69717321E+03
        25   71       4.31294860E-04  0.00000000E+00  0.00000000E+00  4.86848572E+01  4.86848572E+01
        25   73       5.57628671E-04  0.00000000E+00  0.00000000E+00  2.37306558E+03  2.37306558E+03
        25   74       6.75528379E-05  0.00000000E+00  0.00000000E+00  9.69717321E+03  9.69717321E+03
        71   96       2.12543438E-04  0.00000000E+00  1.25766796E+02  0.00000000E+00  1.25766796E+02
        71   28       8.89829168E-04  0.00000000E+00  0.00000000E+00  5.29687949E+03  5.29687949E+03
        71   29       1.69074527E-05  0.00000000E+00  0.00000000E+00  2.71881524E+03  2.71881524E+03
        71   98       1.85874468E-04  0.00000000E+00  4.26674859E+04  0.00000000E+00  4.26674859E+04
        83   96       2.12543438E-04  1.25766796E+02  0.00000000E+00  0.00000000E+00  1.25766796E+02
        83   40       8.89829168E-04  0.00000000E+00  0.00000000E+00  5.29687949E+03  5.29687949E+03
        83   41       1.69074527E-05  0.00000000E+00  0.00000000E+00  2.71881524E+03  2.71881524E+03
        83   98       1.85874468E-04  4.26674859E+04  0.00000000E+00  0.00000000E+00  4.26674859E+04
        72   27       4.89086122E-05  0.00000000E+00  0.00000000E+00  1.14510359E+02  1.14510359E+02
        72   63       9.18356719E-04  2.14173475E+04  0.00000000E+00  0.00000000E+00  2.14173475E+04
        72   97       9.18356719E-04  0.00000000E+00  2.14173475E+04  0.00000000E+00  2.14173475E+04
        84   39       4.89086122E-05  0.00000000E+00  0.00000000E+00  1.14510359E+02  1.14510359E+02
        84   63       9.18356719E-04  0.00000000E+00  2.14173475E+04  0.00000000E+00  2.14173475E+04
        84   97       9.18356719E-04  2.14173475E+04  0.00000000E+00  0.00000000E+00  2.14173475E+04
        26   50       3.47931961E-03  0.00000000E+00  2.27859341E+01  0.00000000E+00  2.27859341E+01
        26   13       1.92636479E-04  1.19092963E+02  0.00000000E+00  0.00000000E+00  1.19092963E+02
        26   51       1.92636479E-04  0.00000000E+00  1.19092963E+02  0.00000000E+00  1.19092963E+02
        26   14       1.56097860E-03  1.30530869E+03  0.00000000E+00  0.00000000E+00  1.30530869E+03
        26   73       4.76466543E-04  0.00000000E+00  0.00000000E+00  7.50968394E+02  7.50968394E+02
        26   74       1.81585816E-04  0.00000000E+00  0.00000000E+00  2.26713927E+04  2.26713927E+04
        26   53       1.45693089E-04  0.00000000E+00  3.32389488E+04  0.00000000E+00  3.32389488E+04
        38   50       3.47931961E-03  2.27859341E+01  0.00000000E+00  0.00000000E+00  2.27859341E+01
        38   13       1.92636479E-04  0.00000000E+00  1.19092963E+02  0.00000000E+00  1.19092963E+02
        38   51       1.92636479E-04  1.19092963E+02  0.00000000E+00  0.00000000E+00  1.19092963E+02
        38   14       1.56097860E-03  0.00000000E+00  1.30530869E+03  0.00000000E+00  1.30530869E+03
        38   85       4.76466543E-04  0.00000000E+00  0.00000000E+00  7.50968394E+02  7.50968394E+02
        38   86       1.81585816E-04  0.00000000E+00  0.00000000E+00  2.26713927E+04  2.26713927E+04
        38   53       1.45693089E-04  3.32389488E+04  0.00000000E+00  0.00000000E+00  3.32389488E+04
        50   96       2.28541233E-03  0.00000000E+00  0.00000000E+00  1.07422648E+02  1.07422648E+02
        50   40       1.04629767E-03  3.72713299E+03  0.00000000E+00  0.00000000E+00  3.72713299E+03
        50   28       1.04629767E-03  0.00000000E+00  3.72713299E+03  0.00000000E+00  3.72713299E+03
        50   29       8.98416382E-05  0.00000000E+00  1.32157245E+04  0.00000000E+00  1.32157245E+04
        50   41       8.98416382E-05  1.32157245E+04  0.00000000E+00  0.00000000E+00  1.32157245E+04
        50   98       6.67569344E-05  0.00000000E+00  0.00000000E+00  1.42269373E+04  1.42269373E+04
        96   85       1.82724547E-03  1.67595551E+03  0.00000000E+00  0.00000000E+00  1.67595551E+03
        96   73       1.82724547E-03  0.00000000E+00  1.67595551E+03  0.00000000E+00  1.67595551E+03
        96   53       6.23605219E-05  0.00000000E+00  0.00000000E+00  1.36718096E+04  1.36718096E+04
        13   27       1.69811195E-05  8.06277569E+00  0.00000000E+00  0.00000000E+00  8.06277569E+00
        13   39       1.69811195E-05  0.00000000E+00  8.06277569E+00  0.00000000E+00  8.06277569E+00
        13   40       2.55778501E-04  0.00000000E+00  3.57374796E+02  0.00000000E+00  3.57374796E+02
        13   28       2.55778501E-04  3.57374796E+02  0.00000000E+00  0.00000000E+00  3.57374796E+02
        13   29       2.95803984E-05  3.85989061E+03  0.00000000E+00  0.00000000E+00  3.85989061E+03
        13   41       2.95803984E-05  0.00000000E+00  3.85989061E+03  0.00000000E+00  3.85989061E+03
        51   27       1.69811195E-05  0.00000000E+00  8.06277569E+00  0.00000000E+00  8.06277569E+00
        51   39       1.69811195E-05  8.06277569E+00  0.00000000E+00  0.00000000E+00  8.06277569E+00
        51   40       2.55778501E-04  3.57374796E+02  0.00000000E+00  0.00000000E+00  3.57374796E+02
        51   28       2.55778501E-04  0.00000000E+00  3.57374796E+02  0.00000000E+00  3.57374796E+02
        51   29       2.95803984E-05  0.00000000E+00  3.85989061E+03  0.00000000E+00  3.85989061E+03
        51   41       2.95803984E-05  3.85989061E+03  0.00000000E+00  0.00000000E+00  3.85989061E+03
        14   40       4.66449501E-04  0.00000000E+00  5.18050068E+02  0.00000000E+00  5.18050068E+02
        14   28       4.66449501E-04  5.18050068E+02  0.00000000E+00  0.00000000E+00  5.18050068E+02
        14   29       2.34665633E-05  2.99377701E+03  0.00000000E+00  0.00000000E+00  2.99377701E+03
        14   41       2.34665633E-05  0.00000000E+00  2.99377701E+03  0.00000000E+00  2.99377701E+03
        85   40       3.25230905E-05  0.00000000E+00  0.00000000E+00  1.65277745E+01  1.65277745E+01
        85   63       5.39858559E-04  0.00000000E+00  6.68521667E+03  0.00000000E+00  6.68521667E+03
        85   97       5.39858559E-04  6.68521667E+03  0.00000000E+00  0.00000000E+00  6.68521667E+03
        85   41       1.30922778E-05  0.00000000E+00  0.00000000E+00  1.57093744E+03  1.57093744E+03
        85   98       5.41470064E-05  9.75744469E+03  0.00000000E+00  0.00000000E+00  9.75744469E+03
        73   28       3.25230905E-05  0.00000000E+00  0.00000000E+00  1.65277745E+01  1.65277745E+01
        73   63       5.39858559E-04  6.68521667E+03  0.00000000E+00  0.00000000E+00  6.68521667E+03
        73   97       5.39858559E-04  0.00000000E+00  6.68521667E+03  0.00000000E+00  6.68521667E+03
        73   29       1.30922778E-05  0.00000000E+00  0.00000000E+00  1.57093744E+03  1.57093744E+03
        73   98       5.41470064E-05  0.00000000E+00  9.75744469E+03  0.00000000E+00  9.75744469E+03
        27   15       9.58878552E-04  1.28084613E+04  0.00000000E+00  0.00000000E+00  1.28084613E+04
        27   52       9.58878552E-04  0.00000000E+00  1.28084613E+04  0.00000000E+00  1.28084613E+04
        39   15       9.58878552E-04  0.00000000E+00  1.28084613E+04  0.00000000E+00  1.28084613E+04
        39   52       9.58878552E-04  1.28084613E+04  0.00000000E+00  0.00000000E+00  1.28084613E+04
        40   15       5.58264741E-04  0.00000000E+00  5.58115574E+03  0.00000000E+00  5.58115574E+03
        40   52       5.58264741E-04  5.58115574E+03  0.00000000E+00  0.00000000E+00  5.58115574E+03
        40   86       1.48477031E-05  0.00000000E+00  0.00000000E+00  1.25819115E+03  1.25819115E+03
        40   53       9.13365163E-05  1.57608053E+04  0.00000000E+00  0.00000000E+00  1.57608053E+04
        28   15       5.58264741E-04  5.58115574E+03  0.00000000E+00  0.00000000E+00  5.58115574E+03
        28   52       5.58264741E-04  0.00000000E+00  5.58115574E+03  0.00000000E+00  5.58115574E+03
        28   74       1.48477031E-05  0.00000000E+00  0.00000000E+00  1.25819115E+03  1.25819115E+03
        28   53       9.13365163E-05  0.00000000E+00  1.57608053E+04  0.00000000E+00  1.57608053E+04
        63   15       2.39043742E-05  0.00000000E+00  0.00000000E+00  3.02510449E+00  3.02510449E+00
        63   74       1.26619108E-05  5.18519279E+02  0.00000000E+00  0.00000000E+00  5.18519279E+02
        63   86       1.26619108E-05  0.00000000E+00  5.18519279E+02  0.00000000E+00  5.18519279E+02
        97   52       2.39043742E-05  0.00000000E+00  0.00000000E+00  3.02510449E+00  3.02510449E+00
        97   74       1.26619108E-05  0.00000000E+00  5.18519279E+02  0.00000000E+00  5.18519279E+02
        97   86       1.26619108E-05  5.18519279E+02  0.00000000E+00  0.00000000E+00  5.18519279E+02
        74   29       2.24867391E-04  0.00000000E+00  0.00000000E+00  2.41202240E+02  2.41202240E+02
        74   98       6.16273310E-04  0.00000000E+00  7.57383815E+03  0.00000000E+00  7.57383815E+03
        86   41       2.24867391E-04  0.00000000E+00  0.00000000E+00  2.41202240E+02  2.41202240E+02
        86   98       6.16273310E-04  7.57383815E+03  0.00000000E+00  0.00000000E+00  7.57383815E+03
        44   89       1.82515027E-03  0.00000000E+00  0.00000000E+00  1.02600490E+03  1.02600490E+03
        44   32       3.61623644E-04  1.28232233E+03  0.00000000E+00  0.00000000E+00  1.28232233E+03
        44   20       3.61623644E-04  0.00000000E+00  1.28232234E+03  0.00000000E+00  1.28232234E+03
        44   33       5.66152386E-04  4.47543649E+03  0.00000000E+00  0.00000000E+00  4.47543649E+03
        44   21       5.66152386E-04  0.00000000E+00  4.47543649E+03  0.00000000E+00  4.47543649E+03
        44   34       8.89466047E-05  1.67821777E+03  0.00000000E+00  0.00000000E+00  1.67821777E+03
        44   22       8.89466047E-05  0.00000000E+00  1.67821777E+03  0.00000000E+00  1.67821777E+03
[...]
        26   50      --------------- below threshold  3.47931961E-03
        26   13      --------------- below threshold  1.92636479E-04
        26   51      --------------- below threshold  1.92636479E-04
        26   14      --------------- below threshold  1.56097860E-03
        26   73            95.499041  2.14455622E-05  4.76466543E-04
        26   74            68.363369  5.74476339E-05  1.81585816E-04
        26   53      --------------- below threshold  1.45693089E-04
        38   50      --------------- below threshold  3.47931961E-03
        38   13      --------------- below threshold  1.92636479E-04
        38   51      --------------- below threshold  1.92636479E-04
        38   14      --------------- below threshold  1.56097860E-03
        38   85            95.499041  2.14455622E-05  4.76466543E-04
        38   86            68.363369  5.74476339E-05  1.81585816E-04
        38   53      --------------- below threshold  1.45693089E-04
        50   96      --------------- below threshold  2.28541233E-03
        50   40      --------------- below threshold  1.04629767E-03
        50   28      --------------- below threshold  1.04629767E-03
        50   29      --------------- below threshold  8.98416382E-05
        50   41      --------------- below threshold  8.98416382E-05
        50   98           147.592123  1.65284911E-04  6.67569344E-05
        96   85      --------------- below threshold  1.82724547E-03
        96   73      --------------- below threshold  1.82724547E-03
        96   53            81.580448  1.14865286E-05  6.23605219E-05
        13   27      --------------- below threshold  1.69811195E-05
        13   39      --------------- below threshold  1.69811195E-05
        13   40      --------------- below threshold  2.55778501E-04
        13   28      --------------- below threshold  2.55778501E-04
        13   29      --------------- below threshold  2.95803984E-05
        13   41      --------------- below threshold  2.95803984E-05
        51   27      --------------- below threshold  1.69811195E-05
        51   39      --------------- below threshold  1.69811195E-05
        51   40      --------------- below threshold  2.55778501E-04
        51   28      --------------- below threshold  2.55778501E-04
        51   29      --------------- below threshold  2.95803984E-05
        51   41      --------------- below threshold  2.95803984E-05
        14   40      --------------- below threshold  4.66449501E-04
        14   28      --------------- below threshold  4.66449501E-04
        14   29      --------------- below threshold  2.34665633E-05
        14   41      --------------- below threshold  2.34665633E-05
        85   40      --------------- below threshold  3.25230905E-05
        85   63      --------------- below threshold  5.39858559E-04
        85   97      --------------- below threshold  5.39858559E-04
        85   41      --------------- below threshold  1.30922778E-05
        85   98      --------------- below threshold  5.41470064E-05
        73   28      --------------- below threshold  3.25230905E-05
        73   63      --------------- below threshold  5.39858559E-04
        73   97      --------------- below threshold  5.39858559E-04
        73   29      --------------- below threshold  1.30922778E-05
        73   98      --------------- below threshold  5.41470064E-05
        27   15      --------------- below threshold  9.58878552E-04
        27   52      --------------- below threshold  9.58878552E-04
        39   15      --------------- below threshold  9.58878552E-04
        39   52      --------------- below threshold  9.58878552E-04
        40   15      --------------- below threshold  5.58264741E-04
        40   52      --------------- below threshold  5.58264741E-04
        40   86      --------------- below threshold  1.48477031E-05
        40   53      --------------- below threshold  9.13365163E-05
        28   15      --------------- below threshold  5.58264741E-04
        28   52      --------------- below threshold  5.58264741E-04
        28   74      --------------- below threshold  1.48477031E-05
        28   53      --------------- below threshold  9.13365163E-05
        63   15      --------------- below threshold  2.39043742E-05
        63   74      --------------- below threshold  1.26619108E-05
        63   86      --------------- below threshold  1.26619108E-05
        97   52      --------------- below threshold  2.39043742E-05
        97   74      --------------- below threshold  1.26619108E-05
        97   86      --------------- below threshold  1.26619108E-05
        74   29      --------------- below threshold  2.24867391E-04
        74   98      --------------- below threshold  6.16273310E-04
        86   41      --------------- below threshold  2.24867391E-04
        86   98      --------------- below threshold  6.16273310E-04
        44   89            97.589617  4.39931091E-05  1.82515027E-03
        44   32      --------------- below threshold  3.61623644E-04
        44   20      --------------- below threshold  3.61623644E-04
        44   33      --------------- below threshold  5.66152386E-04
        44   21      --------------- below threshold  5.66152386E-04
        44   34      --------------- below threshold  8.89466047E-05
        44   22      --------------- below threshold  8.89466047E-05
        44   92           246.704016  2.16369941E-04  6.24076823E-05
         4   55            97.589617  4.39931091E-05  1.82515027E-03
         4   32      --------------- below threshold  3.61623644E-04
         4   20      --------------- below threshold  3.61623644E-04
         4   33      --------------- below threshold  5.66152386E-04
         4   21      --------------- below threshold  5.66152386E-04
         4   34      --------------- below threshold  8.89466047E-05
         4   22      --------------- below threshold  8.89466047E-05
         4   57           246.704016  2.16369941E-04  6.24076823E-05
        29   53      --------------- below threshold  7.77478741E-04
        41   53      --------------- below threshold  7.77478741E-04
        65   90      --------------- below threshold  1.09195514E-03
        65   20            98.922850  1.13418129E-05  1.05294663E-03
        65   56      --------------- below threshold  2.23207582E-04
        65   23      ---------------  3.31967292E-04 below threshold
        77   90      --------------- below threshold  1.09195514E-03
        77   32            98.922850  1.13418129E-05  1.05294663E-03
        77   56      --------------- below threshold  2.23207582E-04
        77   35      ---------------  3.31967292E-04 below threshold
         5   32      --------------- below threshold  3.26180880E-05
         5   20      --------------- below threshold  3.26180880E-05
         5   33      --------------- below threshold  4.95897686E-04
         5   21      --------------- below threshold  4.95897686E-04
         5   56           303.576460  4.40231699E-04  1.09082601E-04
         5   35      --------------- below threshold  1.47662328E-04
         5   23      --------------- below threshold  1.47662328E-04
        89   66      --------------- below threshold  9.04780804E-04
        89   78      --------------- below threshold  9.04780804E-04
        89   67      --------------- below threshold  1.67043265E-03
        89   79      --------------- below threshold  1.67043265E-03
        89   45            94.943519  6.67436623E-05  1.31996263E-03
        89   68      --------------- below threshold  9.59553813E-05
        89   80      --------------- below threshold  9.59553813E-05
        89   47      ---------------  2.92877578E-04 below threshold
        55   66      --------------- below threshold  9.04780804E-04
        55   78      --------------- below threshold  9.04780804E-04
        55   67      --------------- below threshold  1.67043265E-03
        55   79      --------------- below threshold  1.67043265E-03
        55    7            94.943519  6.67436623E-05  1.31996263E-03
        55   68      --------------- below threshold  9.59553813E-05
        55   80      --------------- below threshold  9.59553813E-05
        55   11      ---------------  2.92877578E-04 below threshold
        90   67      --------------- below threshold  1.44580524E-03
        90   79      --------------- below threshold  1.44580524E-03
        66   22            87.691298  8.17094648E-05  6.63834954E-04
        66   57      --------------- below threshold  3.51984534E-04
        66   92      --------------- below threshold  3.51984534E-04
        78   34            87.691298  8.17094648E-05  6.63834954E-04
        78   57      --------------- below threshold  3.51984534E-04
        78   92      --------------- below threshold  3.51984534E-04
        32    6      --------------- below threshold  2.97819459E-04
        32   79      --------------- below threshold  3.92117694E-04
        32    7      --------------- below threshold  1.08414089E-05
        32   45      --------------- below threshold  1.08414089E-05
        32    8      --------------- below threshold  1.66223090E-04
        32   80            52.602748  2.31441315E-04  4.88301122E-04
        32   10      --------------- below threshold  8.28347707E-05
        32   12      --------------- below threshold  4.60393211E-05
        20    6      --------------- below threshold  2.97819458E-04
        20   67      --------------- below threshold  3.92117694E-04
        20    7      --------------- below threshold  1.08414089E-05
        20   45      --------------- below threshold  1.08414089E-05
        20    8      --------------- below threshold  1.66223090E-04
        20   68            52.602748  2.31441315E-04  4.88301122E-04
        20   10      --------------- below threshold  8.28347707E-05
        20   12      --------------- below threshold  4.60393211E-05
         6   33      --------------- below threshold  2.42604539E-03
         6   21      --------------- below threshold  2.42604539E-03
         6   56            91.146902  1.01520521E-04  1.14672314E-03
         6   35      --------------- below threshold  2.80155810E-05
         6   23      --------------- below threshold  2.80155810E-05
        98   53      --------------- below threshold  1.55653411E-04
        67   21      --------------- below threshold  1.00669534E-03
        67   91      --------------- below threshold  1.55160892E-03
        67   56      --------------- below threshold  1.04898886E-05
        67   23      ---------------  1.01097519E-05 below threshold
        67   57      --------------- below threshold  1.86119244E-05
        67   92      --------------- below threshold  1.86119244E-05
        79   33      --------------- below threshold  1.00669534E-03
        79   91      --------------- below threshold  1.55160892E-03
        79   56      --------------- below threshold  1.04898886E-05
        79   35      ---------------  1.01097519E-05 below threshold
        79   57      --------------- below threshold  1.86119244E-05
        79   92      --------------- below threshold  1.86119244E-05
        33    7      --------------- below threshold  3.67310603E-02
        33   45      --------------- below threshold  3.67310603E-02
        33    8      --------------- below threshold  1.34976199E-03
        33   80            93.573033  1.13104643E-05  1.75984477E-04
        33   10      --------------- below threshold  2.64396280E-05
        33   47      --------------- below threshold  1.76266537E-05
        33   11      --------------- below threshold  1.76266537E-05
        21    7      --------------- below threshold  3.67310603E-02
        21   45      --------------- below threshold  3.67310603E-02
        21    8      --------------- below threshold  1.34976199E-03
        21   68            93.573033  1.13104643E-05  1.75984477E-04
        21   10      --------------- below threshold  2.64396280E-05
        21   47      --------------- below threshold  1.76266537E-05
        21   11      --------------- below threshold  1.76266537E-05
         7   34      --------------- below threshold  2.01300323E-04
         7   22      --------------- below threshold  2.01300323E-04
         7   35      --------------- below threshold  1.03022329E-04
         7   23      --------------- below threshold  1.03022329E-04
        45   34      --------------- below threshold  2.01300323E-04
        45   22      --------------- below threshold  2.01300323E-04
        45   35      --------------- below threshold  1.03022329E-04
        45   23      --------------- below threshold  1.03022329E-04
        34   46      --------------- below threshold  9.31365416E-05
        34    9      --------------- below threshold  9.31365416E-05
        34   47      --------------- below threshold  1.90051123E-04
        34   11      --------------- below threshold  1.90051123E-04
        22   46      --------------- below threshold  9.31365416E-05
        22    9      --------------- below threshold  9.31365416E-05
        22   47      --------------- below threshold  1.90051123E-04
        22   11      --------------- below threshold  1.90051123E-04
         8   35      --------------- below threshold  5.09444754E-05
         8   23      --------------- below threshold  5.09444754E-05
        91   68      --------------- below threshold  9.29716795E-05
        91   80      --------------- below threshold  9.29716795E-05
        56   10            94.913926  1.42466413E-04  2.80110785E-03
        56   12          1602.098247  7.49044795E-04  4.40071421E-05
        68   23            97.180933  1.86995528E-05  6.63324144E-04
        68   57      --------------- below threshold  3.06007566E-05
        68   92      --------------- below threshold  3.06007566E-05
        80   35            97.180933  1.86995528E-05  6.63324144E-04
        80   57      --------------- below threshold  3.06007566E-05
        80   92      --------------- below threshold  3.06007566E-05
        10   35      --------------- below threshold  2.31171925E-02
        10   23      --------------- below threshold  2.31171925E-02
        35   47      --------------- below threshold  4.84317328E-04
        35   11      --------------- below threshold  4.84317328E-04
        35   12      --------------- below threshold  1.94518666E-04
        23   47      --------------- below threshold  4.84317328E-04
        23   11      --------------- below threshold  4.84317328E-04
        23   12      --------------- below threshold  1.94518666E-04
        57   11      --------------- below threshold  4.11969156E-05
        92   47      --------------- below threshold  4.11969156E-05
     ---------------------------------------------------------------

 Number of problematic transitions =                   392

--

 Electric-dipole - electric-octupole not included
 Electric-dipole - magnetic-quadrupole not included


      ****************************************************************************************************
      *                                                                                                  *
      *                                    Special properties section                                    *
      *                                                                                                  *
      ****************************************************************************************************


++ I/O STATISTICS
 
  I. General I/O information
  - - - - - - - - - - - - - - - - - - - - - - - - - - - - - - - - - - - - - - - - - - -
  Unit  Name          Flsize      Write/Read            MBytes           Write/Read
                      (MBytes)       Calls              In/Out           Time, sec.
  - - - - - - - - - - - - - - - - - - - - - - - - - - - - - - - - - - - - - - - - - - -
   1  RUNFILE           0.99 .     266/  263027 .      2.5/   1902.8 .       0/       0
   2  ANNI              0.00 .       0/       0 .      0.0/      0.0 .       0/       0
   3  ONEINT            1.54 .       0/  126040 .      0.0/ 152831.4 .       0/      18
   4  JOBIPH            1.52 .       0/     651 .      0.0/      1.5 .       0/       0
   5  JOBIPH01          1.22 .       0/     219 .      0.0/      1.3 .       0/       0
   6  JOBIPH02          1.22 .       0/     219 .      0.0/      1.3 .       0/       0
   7  JOBIPH03          1.28 .       0/     315 .      0.0/      1.4 .       0/       0
   8  JOBIPH04          1.32 .       0/     363 .      0.0/      1.4 .       0/       0
   9  JOBIPH05          1.15 .       0/     123 .      0.0/      1.3 .       0/       0
  10  JOBIPH06          1.28 .       0/     315 .      0.0/      1.4 .       0/       0
  11  JOBIPH07          1.32 .       0/     363 .      0.0/      1.4 .       0/       0
  12  JOBIPH08          1.15 .       0/     123 .      0.0/      1.3 .       0/       0
  13  JOBIPH09          1.28 .       0/     315 .      0.0/      1.4 .       0/       0
  14  JOBIPH10          1.32 .       0/     363 .      0.0/      1.4 .       0/       0
  15  JOBIPH11          1.15 .       0/     123 .      0.0/      1.3 .       0/       0
  16  JOBIPH12          1.22 .       0/     219 .      0.0/      1.3 .       0/       0
  17  JOBIPH13          1.32 .       0/     363 .      0.0/      1.4 .       0/       0
  18  JOBIPH14          1.28 .       0/     315 .      0.0/      1.4 .       0/       0
  19  JOBIPH15          1.32 .       0/     363 .      0.0/      1.4 .       0/       0
  20  JOBIPH16          1.15 .       0/     123 .      0.0/      1.3 .       0/       0
  21  JOBIPH17          1.28 .       0/     315 .      0.0/      1.4 .       0/       0
  22  JOBIPH18          1.32 .       0/     363 .      0.0/      1.4 .       0/       0
  23  JOBIPH19          1.15 .       0/     123 .      0.0/      1.3 .       0/       0
  24  JOBIPH20          1.28 .       0/     315 .      0.0/      1.4 .       0/       0
  25  JOBIPH21          1.32 .       0/     363 .      0.0/      1.4 .       0/       0
  26  JOBIPH22          1.15 .       0/     123 .      0.0/      1.3 .       0/       0
  - - - - - - - - - - - - - - - - - - - - - - - - - - - - - - - - - - - - - - - - - - -
   *  TOTAL            31.50 .     266/  395544 .      2.5/ 154765.3 .       0/      19
  - - - - - - - - - - - - - - - - - - - - - - - - - - - - - - - - - - - - - - - - - - -
 
  II. I/O Access Patterns
  - - - - - - - - - - - - - - - - - - - -
  Unit  Name               % of random
                         Write/Read calls
  - - - - - - - - - - - - - - - - - - - -
   1  RUNFILE             28.6/  11.1
   2  ANNI                 0.0/   0.0
   3  ONEINT               0.0/  99.3
   4  JOBIPH               0.0/  51.9
   5  JOBIPH01             0.0/  55.7
   6  JOBIPH02             0.0/  55.7
   7  JOBIPH03             0.0/  54.0
   8  JOBIPH04             0.0/  53.4
   9  JOBIPH05             0.0/  60.2
  10  JOBIPH06             0.0/  54.0
  11  JOBIPH07             0.0/  53.4
  12  JOBIPH08             0.0/  60.2
  13  JOBIPH09             0.0/  54.0
  14  JOBIPH10             0.0/  53.4
  15  JOBIPH11             0.0/  60.2
  16  JOBIPH12             0.0/  55.7
  17  JOBIPH13             0.0/  53.4
  18  JOBIPH14             0.0/  54.0
  19  JOBIPH15             0.0/  53.4
  20  JOBIPH16             0.0/  60.2
  21  JOBIPH17             0.0/  54.0
  22  JOBIPH18             0.0/  53.4
  23  JOBIPH19             0.0/  60.2
  24  JOBIPH20             0.0/  54.0
  25  JOBIPH21             0.0/  53.4
  26  JOBIPH22             0.0/  60.2
  - - - - - - - - - - - - - - - - - - - -
--
--- Stop Module: rassi at Thu Apr 17 11:02:44 2025 /rc=_RC_ALL_IS_WELL_ ---
--- Module rassi spent 41 seconds ---

.##################.
.# Happy landing! #.
.##################.

    Timing: Wall=41.25 User=19.78 System=20.20
