   This run of MOLCAS is using the pymolcas driver

                             OPE
                             OPE          NMOL  CASOP  ENMOLC A   SO
                 OPE        NMOLC        AS  OP EN  MO LC     AS  OP
                OPENM       OL CA        SO  PE NM  OL CA     SOP EN
                OP EN      MO   LC       AS  OP ENMOL  CASO   PENMOL
                OP  EN     MO   LC       AS  OP EN     MO     LC ASO
               OP   E  NMOL  C  AS       OP  EN MO     LC     AS  OP
               OP  E   NMO   LC AS        OPEN  MO     LCASOP EN   M
               O  PEN   MO  LCA  SO
            OPE   NMO   L   CAS    OP
        OPENMOL  CASOP     ENMOL   CASOPE
     OPENMOLCA   SOPENMOLCASOPEN   MOLCASOPE
    OPENMOLCAS   OP           EN   MOL    CAS
    OPENMOLCAS       OP  ENM        O     LCA
    OPENMOLCAS    OPEN  MOLCASO     P  E  NMO
    OPENMOLCAS     OP               E  N  MOL
    OPENMOLCA   SO           PENM   O  L  CAS    OPEN    MO    LCAS
    OPENMOLCA   SOP           ENM   O  L  CAS   OP  EN  MOLC  AS   O
    OPENMOLCA   SOPE           NM      O  LCA   S      OP  EN MO
    OPENMOLC                AS         O  PEN   M      OL  CA  SOPE
    OPENMO        LCASOPE  NMOL        C  ASO   P      ENMOLC     AS
    OPE     NMO      LCA  SO     P     E   NM   OL  CA SO  PE N   MO
          OPENMOLCA            SOPE   NMO        LCAS  O    P  ENMO
     OPENMOLCASOPENMOLCASOPENMOLCASOPENMOLCA
        OPENMOLCASOPENMOLCASOPENMOLCASOPE
            OPENMOLCASOPENMOLCASOPENM
               OPENMOLCASOPENMOLCA        version: 25.02
                   OPENMOLCASO
                       OPE                tag: 92-gf4b470f0a

 OpenMolcas is free software; you can redistribute it and/or modify it
 under the terms of the GNU Lesser General Public License version 2.1.
 OpenMolcas is distributed in the hope that it will be useful, but it
 is provided "as is" and without any express or implied warranties.
 For more details see the full text of the license in the file
 LICENSE or in <http://www.gnu.org/licenses/>.

                 Copyright (C) The OpenMolcas Authors
           For the author list and the recommended citation,
                   consult the file CONTRIBUTORS.md

           *************************************************
           * pymolcas version py2.29                       *
           *   build 2ba4516c4d154a59cba941070ba63e2c      *
           *   (after the EMIL interpreter by V. Veryazov) *
           *************************************************

configuration info
------------------
Host name: iftia91.univ.gda.pl (Linux)
C Compiler ID: GNU
C flags: -std=gnu99
Fortran Compiler ID: GNU
Fortran flags: -cpp -fdefault-integer-8 -fmax-stack-var-size=1048576
Definitions: _MOLCAS_;_I8_;_LINUX_
Parallel: OFF (GA=OFF)


   --------------------------------------------------------------------
  |
  |           Project: O2
  |    Submitted from: /scratch/tecumseh/WorkSpace/O2.2.5000
  |      Scratch area: /scratch/tecumseh/WorkSpace/O2.2.5000
  |   Save outputs to: WORKDIR
  |            Molcas: /home/tecumseh/program/OpenMolcas/build
  |
  | Scratch area is NOT empty
  |
  |    MOLCAS_DRIVER = /home/tecumseh/program/OpenMolcas/build/pymolcas
  |    MOLCAS_NPROCS = 1
  |    MOLCAS_SOURCE = /home/tecumseh/program/OpenMolcas/OpenMolcas
  | MOLCAS_STRUCTURE = 0
  |
   --------------------------------------------------------------------

++ ---------   Input file   ---------

>>> COPY $dir/vectors/$Project.$R.1Ag-12S.JobIph $WorkDir/JOBIPH

>>> COPY $dir/vectors/$Project.$R.3Ag-3S.JobIph $WorkDir/JOBIPH01

>>> COPY $dir/vectors/$Project.$R.5Ag-3S.JobIph $WorkDir/JOBIPH02

>>> COPY $dir/vectors/$Project.$R.1B3u-5S.JobIph $WorkDir/JOBIPH03

>>> COPY $dir/vectors/$Project.$R.3B3u-6S.JobIph $WorkDir/JOBIPH04

>>> COPY $dir/vectors/$Project.$R.5B3u-1S.JobIph $WorkDir/JOBIPH05

>>> COPY $dir/vectors/$Project.$R.1B2u-5S.JobIph $WorkDir/JOBIPH06

>>> COPY $dir/vectors/$Project.$R.3B2u-6S.JobIph $WorkDir/JOBIPH07

>>> COPY $dir/vectors/$Project.$R.5B2u-1S.JobIph $WorkDir/JOBIPH08

>>> COPY $dir/vectors/$Project.$R.1B1g-5S.JobIph $WorkDir/JOBIPH09

>>> COPY $dir/vectors/$Project.$R.3B1g-6S.JobIph $WorkDir/JOBIPH10

>>> COPY $dir/vectors/$Project.$R.5B1g-1S.JobIph $WorkDir/JOBIPH11

>>> COPY $dir/vectors/$Project.$R.1B1u-3S.JobIph $WorkDir/JOBIPH12

>>> COPY $dir/vectors/$Project.$R.3B1u-6S.JobIph $WorkDir/JOBIPH13

>>> COPY $dir/vectors/$Project.$R.1B2g-5S.JobIph $WorkDir/JOBIPH14

>>> COPY $dir/vectors/$Project.$R.3B2g-6S.JobIph $WorkDir/JOBIPH15

>>> COPY $dir/vectors/$Project.$R.5B2g-1S.JobIph $WorkDir/JOBIPH16

>>> COPY $dir/vectors/$Project.$R.1B3g-5S.JobIph $WorkDir/JOBIPH17

>>> COPY $dir/vectors/$Project.$R.3B3g-6S.JobIph $WorkDir/JOBIPH18

>>> COPY $dir/vectors/$Project.$R.5B3g-1S.JobIph $WorkDir/JOBIPH19

>>> COPY $dir/vectors/$Project.$R.1Au-5S.JobIph $WorkDir/JOBIPH20

>>> COPY $dir/vectors/$Project.$R.3Au-6S.JobIph $WorkDir/JOBIPH21

>>> COPY $dir/vectors/$Project.$R.5Au-1S.JobIph $WorkDir/JOBIPH22

&RASSI

OMEGa
NROF=23 12 3 3 5 6 1 5 6 1 5 6 1 3 6 5 6 1 5 6 1 5 6 1
1 2 3 4 5 6 7 8 9 10 11 12
1 2 3
1 2 3
1 2 3 4 5
1 2 3 4 5 6
1
1 2 3 4 5
1 2 3 4 5 6
1
1 2 3 4 5
1 2 3 4 5 6
1
1 2 3
1 2 3 4 5 6
1 2 3 4 5
1 2 3 4 5 6
1
1 2 3 4 5
1 2 3 4 5 6
1
1 2 3 4 5
1 2 3 4 5 6
1
EJOB

-- ----------------------------------

>>> COPY /home/tecumseh/project/molecule/O2/OpenMolcas/vectors/O2.2.5000.1Ag-12S.JobIph /scratch/tecumseh/WorkSpace/O2.2.5000/JOBIPH

>>> COPY /home/tecumseh/project/molecule/O2/OpenMolcas/vectors/O2.2.5000.3Ag-3S.JobIph /scratch/tecumseh/WorkSpace/O2.2.5000/JOBIPH01

>>> COPY /home/tecumseh/project/molecule/O2/OpenMolcas/vectors/O2.2.5000.5Ag-3S.JobIph /scratch/tecumseh/WorkSpace/O2.2.5000/JOBIPH02

>>> COPY /home/tecumseh/project/molecule/O2/OpenMolcas/vectors/O2.2.5000.1B3u-5S.JobIph /scratch/tecumseh/WorkSpace/O2.2.5000/JOBIPH03

>>> COPY /home/tecumseh/project/molecule/O2/OpenMolcas/vectors/O2.2.5000.3B3u-6S.JobIph /scratch/tecumseh/WorkSpace/O2.2.5000/JOBIPH04

>>> COPY /home/tecumseh/project/molecule/O2/OpenMolcas/vectors/O2.2.5000.5B3u-1S.JobIph /scratch/tecumseh/WorkSpace/O2.2.5000/JOBIPH05

>>> COPY /home/tecumseh/project/molecule/O2/OpenMolcas/vectors/O2.2.5000.1B2u-5S.JobIph /scratch/tecumseh/WorkSpace/O2.2.5000/JOBIPH06

>>> COPY /home/tecumseh/project/molecule/O2/OpenMolcas/vectors/O2.2.5000.3B2u-6S.JobIph /scratch/tecumseh/WorkSpace/O2.2.5000/JOBIPH07

>>> COPY /home/tecumseh/project/molecule/O2/OpenMolcas/vectors/O2.2.5000.5B2u-1S.JobIph /scratch/tecumseh/WorkSpace/O2.2.5000/JOBIPH08

>>> COPY /home/tecumseh/project/molecule/O2/OpenMolcas/vectors/O2.2.5000.1B1g-5S.JobIph /scratch/tecumseh/WorkSpace/O2.2.5000/JOBIPH09

>>> COPY /home/tecumseh/project/molecule/O2/OpenMolcas/vectors/O2.2.5000.3B1g-6S.JobIph /scratch/tecumseh/WorkSpace/O2.2.5000/JOBIPH10

>>> COPY /home/tecumseh/project/molecule/O2/OpenMolcas/vectors/O2.2.5000.5B1g-1S.JobIph /scratch/tecumseh/WorkSpace/O2.2.5000/JOBIPH11

>>> COPY /home/tecumseh/project/molecule/O2/OpenMolcas/vectors/O2.2.5000.1B1u-3S.JobIph /scratch/tecumseh/WorkSpace/O2.2.5000/JOBIPH12

>>> COPY /home/tecumseh/project/molecule/O2/OpenMolcas/vectors/O2.2.5000.3B1u-6S.JobIph /scratch/tecumseh/WorkSpace/O2.2.5000/JOBIPH13

>>> COPY /home/tecumseh/project/molecule/O2/OpenMolcas/vectors/O2.2.5000.1B2g-5S.JobIph /scratch/tecumseh/WorkSpace/O2.2.5000/JOBIPH14

>>> COPY /home/tecumseh/project/molecule/O2/OpenMolcas/vectors/O2.2.5000.3B2g-6S.JobIph /scratch/tecumseh/WorkSpace/O2.2.5000/JOBIPH15

>>> COPY /home/tecumseh/project/molecule/O2/OpenMolcas/vectors/O2.2.5000.5B2g-1S.JobIph /scratch/tecumseh/WorkSpace/O2.2.5000/JOBIPH16

>>> COPY /home/tecumseh/project/molecule/O2/OpenMolcas/vectors/O2.2.5000.1B3g-5S.JobIph /scratch/tecumseh/WorkSpace/O2.2.5000/JOBIPH17

>>> COPY /home/tecumseh/project/molecule/O2/OpenMolcas/vectors/O2.2.5000.3B3g-6S.JobIph /scratch/tecumseh/WorkSpace/O2.2.5000/JOBIPH18

>>> COPY /home/tecumseh/project/molecule/O2/OpenMolcas/vectors/O2.2.5000.5B3g-1S.JobIph /scratch/tecumseh/WorkSpace/O2.2.5000/JOBIPH19

>>> COPY /home/tecumseh/project/molecule/O2/OpenMolcas/vectors/O2.2.5000.1Au-5S.JobIph /scratch/tecumseh/WorkSpace/O2.2.5000/JOBIPH20

>>> COPY /home/tecumseh/project/molecule/O2/OpenMolcas/vectors/O2.2.5000.3Au-6S.JobIph /scratch/tecumseh/WorkSpace/O2.2.5000/JOBIPH21

>>> COPY /home/tecumseh/project/molecule/O2/OpenMolcas/vectors/O2.2.5000.5Au-1S.JobIph /scratch/tecumseh/WorkSpace/O2.2.5000/JOBIPH22

--- Start Module: rassi at Thu Apr 17 11:08:51 2025 ---

()()()()()()()()()()()()()()()()()()()()()()()()()()()()()()()()()()()()()()()()()()()()()()()()()()

                                               &RASSI

                                   only a single process is used
                       available to each process: 2.0 GB of memory, 1 thread?
                                            pid: 299567
()()()()()()()()()()()()()()()()()()()()()()()()()()()()()()()()()()()()()()()()()()()()()()()()()()


      ********************************************************************************
      *                                                                              *
      *                             General data section                             *
      *                                                                              *
      ********************************************************************************

   Specific data for JOBIPH file JOBIPH
   -------------------------------------

   Header from SEWARD:
                            O2, D2h symmetry, aug-cc-pVTZ                      
        Integrals generated by Gateway/Seward, Wed Apr 16 15:48:14 2025        

   CASSCF title (first line only):
       O2, 1Ag 12S                                                             

  STATE IRREP:                1
  SPIN MULTIPLICITY:          1
  ACTIVE ELECTRONS:          12
  MAX RAS1 HOLES:             0
  MAX RAS3 ELECTRONS:         0
  NR OF CONFIG:              60

   Specific data for JOBIPH file JOBIPH01
   -------------------------------------

   Header from SEWARD:
                            O2, D2h symmetry, aug-cc-pVTZ                      
        Integrals generated by Gateway/Seward, Wed Apr 16 15:48:14 2025        

   CASSCF title (first line only):
       O2, 3Ag  3S                                                             

  STATE IRREP:                1
  SPIN MULTIPLICITY:          3
  ACTIVE ELECTRONS:          12
  MAX RAS1 HOLES:             0
  MAX RAS3 ELECTRONS:         0
  NR OF CONFIG:              42

   Specific data for JOBIPH file JOBIPH02
   -------------------------------------

   Header from SEWARD:
                            O2, D2h symmetry, aug-cc-pVTZ                      
        Integrals generated by Gateway/Seward, Wed Apr 16 15:48:14 2025        

   CASSCF title (first line only):
       O2, 5Ag  3S                                                             

  STATE IRREP:                1
  SPIN MULTIPLICITY:          5
  ACTIVE ELECTRONS:          12
  MAX RAS1 HOLES:             0
  MAX RAS3 ELECTRONS:         0
  NR OF CONFIG:              10

   Specific data for JOBIPH file JOBIPH03
   -------------------------------------

   Header from SEWARD:
                            O2, D2h symmetry, aug-cc-pVTZ                      
        Integrals generated by Gateway/Seward, Thu Apr 17 11:08:40 2025        

   CASSCF title (first line only):
       O2, 1B3u 5S                                                             

  STATE IRREP:                2
  SPIN MULTIPLICITY:          1
  ACTIVE ELECTRONS:          12
  MAX RAS1 HOLES:             0
  MAX RAS3 ELECTRONS:         0
  NR OF CONFIG:              40

   Specific data for JOBIPH file JOBIPH04
   -------------------------------------

   Header from SEWARD:
                            O2, D2h symmetry, aug-cc-pVTZ                      
        Integrals generated by Gateway/Seward, Wed Apr 16 15:48:14 2025        

   CASSCF title (first line only):
       O2, 3B3u 6S                                                             

  STATE IRREP:                2
  SPIN MULTIPLICITY:          3
  ACTIVE ELECTRONS:          12
  MAX RAS1 HOLES:             0
  MAX RAS3 ELECTRONS:         0
  NR OF CONFIG:              48

   Specific data for JOBIPH file JOBIPH05
   -------------------------------------

   Header from SEWARD:
                            O2, D2h symmetry, aug-cc-pVTZ                      
        Integrals generated by Gateway/Seward, Wed Apr 16 15:48:14 2025        

   CASSCF title (first line only):
       O2, 5B3u 1S                                                             

  STATE IRREP:                2
  SPIN MULTIPLICITY:          5
  ACTIVE ELECTRONS:          12
  MAX RAS1 HOLES:             0
  MAX RAS3 ELECTRONS:         0
  NR OF CONFIG:               8

   Specific data for JOBIPH file JOBIPH06
   -------------------------------------

   Header from SEWARD:
                            O2, D2h symmetry, aug-cc-pVTZ                      
        Integrals generated by Gateway/Seward, Thu Apr 17 11:08:40 2025        

   CASSCF title (first line only):
       O2, 1B2u 5S                                                             

  STATE IRREP:                3
  SPIN MULTIPLICITY:          1
  ACTIVE ELECTRONS:          12
  MAX RAS1 HOLES:             0
  MAX RAS3 ELECTRONS:         0
  NR OF CONFIG:              40

   Specific data for JOBIPH file JOBIPH07
   -------------------------------------

   Header from SEWARD:
                            O2, D2h symmetry, aug-cc-pVTZ                      
        Integrals generated by Gateway/Seward, Wed Apr 16 15:48:14 2025        

   CASSCF title (first line only):
       O2, 3B2u 6S                                                             

  STATE IRREP:                3
  SPIN MULTIPLICITY:          3
  ACTIVE ELECTRONS:          12
  MAX RAS1 HOLES:             0
  MAX RAS3 ELECTRONS:         0
  NR OF CONFIG:              48

   Specific data for JOBIPH file JOBIPH08
   -------------------------------------

   Header from SEWARD:
                            O2, D2h symmetry, aug-cc-pVTZ                      
        Integrals generated by Gateway/Seward, Wed Apr 16 15:48:14 2025        

   CASSCF title (first line only):
       O2, 5B2u 1S                                                             

  STATE IRREP:                3
  SPIN MULTIPLICITY:          5
  ACTIVE ELECTRONS:          12
  MAX RAS1 HOLES:             0
  MAX RAS3 ELECTRONS:         0
  NR OF CONFIG:               8

   Specific data for JOBIPH file JOBIPH09
   -------------------------------------

   Header from SEWARD:
                            O2, D2h symmetry, aug-cc-pVTZ                      
        Integrals generated by Gateway/Seward, Wed Apr 16 15:48:14 2025        

   CASSCF title (first line only):
       O2, 1B1g 5S                                                             

  STATE IRREP:                4
  SPIN MULTIPLICITY:          1
  ACTIVE ELECTRONS:          12
  MAX RAS1 HOLES:             0
  MAX RAS3 ELECTRONS:         0
  NR OF CONFIG:              36

   Specific data for JOBIPH file JOBIPH10
   -------------------------------------

   Header from SEWARD:
                            O2, D2h symmetry, aug-cc-pVTZ                      
        Integrals generated by Gateway/Seward, Wed Apr 16 15:48:14 2025        

   CASSCF title (first line only):
       O2, 3B1g 6S                                                             

  STATE IRREP:                4
  SPIN MULTIPLICITY:          3
  ACTIVE ELECTRONS:          12
  MAX RAS1 HOLES:             0
  MAX RAS3 ELECTRONS:         0
  NR OF CONFIG:              48

   Specific data for JOBIPH file JOBIPH11
   -------------------------------------

   Header from SEWARD:
                            O2, D2h symmetry, aug-cc-pVTZ                      
        Integrals generated by Gateway/Seward, Wed Apr 16 15:48:14 2025        

   CASSCF title (first line only):
       O2, 5B1g 1S                                                             

  STATE IRREP:                4
  SPIN MULTIPLICITY:          5
  ACTIVE ELECTRONS:          12
  MAX RAS1 HOLES:             0
  MAX RAS3 ELECTRONS:         0
  NR OF CONFIG:              12

   Specific data for JOBIPH file JOBIPH12
   -------------------------------------

   Header from SEWARD:
                            O2, D2h symmetry, aug-cc-pVTZ                      
        Integrals generated by Gateway/Seward, Thu Apr 17 11:08:40 2025        

   CASSCF title (first line only):
       O2, 1B1u 3S                                                             

  STATE IRREP:                5
  SPIN MULTIPLICITY:          1
  ACTIVE ELECTRONS:          12
  MAX RAS1 HOLES:             0
  MAX RAS3 ELECTRONS:         0
  NR OF CONFIG:              44

   Specific data for JOBIPH file JOBIPH13
   -------------------------------------

   Header from SEWARD:
                            O2, D2h symmetry, aug-cc-pVTZ                      
        Integrals generated by Gateway/Seward, Wed Apr 16 15:48:14 2025        

   CASSCF title (first line only):
       O2, 3B1u 6S                                                             

  STATE IRREP:                5
  SPIN MULTIPLICITY:          3
  ACTIVE ELECTRONS:          12
  MAX RAS1 HOLES:             0
  MAX RAS3 ELECTRONS:         0
  NR OF CONFIG:              48

   Specific data for JOBIPH file JOBIPH14
   -------------------------------------

   Header from SEWARD:
                            O2, D2h symmetry, aug-cc-pVTZ                      
        Integrals generated by Gateway/Seward, Wed Apr 16 15:48:14 2025        

   CASSCF title (first line only):
       O2, 1B2g 5S                                                             

  STATE IRREP:                6
  SPIN MULTIPLICITY:          1
  ACTIVE ELECTRONS:          12
  MAX RAS1 HOLES:             0
  MAX RAS3 ELECTRONS:         0
  NR OF CONFIG:              40

   Specific data for JOBIPH file JOBIPH15
   -------------------------------------

   Header from SEWARD:
                            O2, D2h symmetry, aug-cc-pVTZ                      
        Integrals generated by Gateway/Seward, Wed Apr 16 15:48:14 2025        

   CASSCF title (first line only):
       O2, 3B2g 6S                                                             

  STATE IRREP:                6
  SPIN MULTIPLICITY:          3
  ACTIVE ELECTRONS:          12
  MAX RAS1 HOLES:             0
  MAX RAS3 ELECTRONS:         0
  NR OF CONFIG:              48

   Specific data for JOBIPH file JOBIPH16
   -------------------------------------

   Header from SEWARD:
                            O2, D2h symmetry, aug-cc-pVTZ                      
        Integrals generated by Gateway/Seward, Wed Apr 16 15:48:14 2025        

   CASSCF title (first line only):
       O2, 5B2g 1S                                                             

  STATE IRREP:                6
  SPIN MULTIPLICITY:          5
  ACTIVE ELECTRONS:          12
  MAX RAS1 HOLES:             0
  MAX RAS3 ELECTRONS:         0
  NR OF CONFIG:               8

   Specific data for JOBIPH file JOBIPH17
   -------------------------------------

   Header from SEWARD:
                            O2, D2h symmetry, aug-cc-pVTZ                      
        Integrals generated by Gateway/Seward, Wed Apr 16 15:48:14 2025        

   CASSCF title (first line only):
       O2, 1B3g 5S                                                             

  STATE IRREP:                7
  SPIN MULTIPLICITY:          1
  ACTIVE ELECTRONS:          12
  MAX RAS1 HOLES:             0
  MAX RAS3 ELECTRONS:         0
  NR OF CONFIG:              40

   Specific data for JOBIPH file JOBIPH18
   -------------------------------------

   Header from SEWARD:
                            O2, D2h symmetry, aug-cc-pVTZ                      
        Integrals generated by Gateway/Seward, Wed Apr 16 15:48:14 2025        

   CASSCF title (first line only):
       O2, 3B3g 6S                                                             

  STATE IRREP:                7
  SPIN MULTIPLICITY:          3
  ACTIVE ELECTRONS:          12
  MAX RAS1 HOLES:             0
  MAX RAS3 ELECTRONS:         0
  NR OF CONFIG:              48

   Specific data for JOBIPH file JOBIPH19
   -------------------------------------

   Header from SEWARD:
                            O2, D2h symmetry, aug-cc-pVTZ                      
        Integrals generated by Gateway/Seward, Wed Apr 16 15:48:14 2025        

   CASSCF title (first line only):
       O2, 5B3g 1S                                                             

  STATE IRREP:                7
  SPIN MULTIPLICITY:          5
  ACTIVE ELECTRONS:          12
  MAX RAS1 HOLES:             0
  MAX RAS3 ELECTRONS:         0
  NR OF CONFIG:               8

   Specific data for JOBIPH file JOBIPH20
   -------------------------------------

   Header from SEWARD:
                            O2, D2h symmetry, aug-cc-pVTZ                      
        Integrals generated by Gateway/Seward, Thu Apr 17 11:08:40 2025        

   CASSCF title (first line only):
       O2, 1Au 5S                                                              

  STATE IRREP:                8
  SPIN MULTIPLICITY:          1
  ACTIVE ELECTRONS:          12
  MAX RAS1 HOLES:             0
  MAX RAS3 ELECTRONS:         0
  NR OF CONFIG:              36

   Specific data for JOBIPH file JOBIPH21
   -------------------------------------

   Header from SEWARD:
                            O2, D2h symmetry, aug-cc-pVTZ                      
        Integrals generated by Gateway/Seward, Wed Apr 16 15:48:14 2025        

   CASSCF title (first line only):
       O2, 3Au 6S                                                              

  STATE IRREP:                8
  SPIN MULTIPLICITY:          3
  ACTIVE ELECTRONS:          12
  MAX RAS1 HOLES:             0
  MAX RAS3 ELECTRONS:         0
  NR OF CONFIG:              48

   Specific data for JOBIPH file JOBIPH22
   -------------------------------------

   Header from SEWARD:
                            O2, D2h symmetry, aug-cc-pVTZ                      
        Integrals generated by Gateway/Seward, Wed Apr 16 15:48:14 2025        

   CASSCF title (first line only):
       O2, 5Au 1S                                                              

  STATE IRREP:                8
  SPIN MULTIPLICITY:          5
  ACTIVE ELECTRONS:          12
  MAX RAS1 HOLES:             0
  MAX RAS3 ELECTRONS:         0
  NR OF CONFIG:              12
 ###############################################################################
 ###############################################################################
 ###                                                                         ###
 ###                                                                         ###
 ###    WARNING: EJOB used when HEFF is available, possible                  ###
 ###    extra interaction between states is ignored!                         ###
 ###                                                                         ###
 ###                                                                         ###
 ###############################################################################
 ###############################################################################

   The following data are common to all the states:
   ------------------------------------------------
   (note: frozen counts as inactive, deleted as secondary)

      Nr of irreps: 8

                 Total     No./Irrep 
      Irrep                  1   2   3   4   5   6   7   8
                            ag b3u b2u b1g b1u b2g b3g  au

      INACTIVE       2       1   0   0   0   1   0   0   0
      ACTIVE         8       2   1   1   0   2   1   1   0
      SECONDARY     82      16  10  10   5  16  10  10   5
      BASIS         92      19  11  11   5  19  11  11   5

      RAS1           0       0   0   0   0   0   0   0   0
      RAS2           8       2   1   1   0   2   1   1   0
      RAS3           0       0   0   0   0   0   0   0   0

        MATRIX ELEMENTS WILL BE COMPUTED FOR THE FOLLOWING ONE-ELECTRON OPERATORS, UNLESS ZERO BY SYMMETRY.
   (Herm=Hermitian, Anti=Antihermitian, Sing=Singlet operator, Trip=Triplet operator)
     MLTPL  0   1 (HERMSING)     MLTPL  1   1 (HERMSING)     MLTPL  1   2 (HERMSING)
     MLTPL  1   3 (HERMSING)     MLTPL  2   1 (HERMSING)     MLTPL  2   2 (HERMSING)
     MLTPL  2   3 (HERMSING)     MLTPL  2   4 (HERMSING)     MLTPL  2   5 (HERMSING)
     MLTPL  2   6 (HERMSING)     VELOCITY   1 (ANTISING)     VELOCITY   2 (ANTISING)
     VELOCITY   3 (ANTISING)     ANGMOM     1 (ANTISING)     ANGMOM     2 (ANTISING)
     ANGMOM     3 (ANTISING)     MLTPV  2   1 (ANTISING)     MLTPV  2   2 (ANTISING)
     MLTPV  2   3 (ANTISING)     MLTPV  2   4 (ANTISING)     MLTPV  2   5 (ANTISING)
     MLTPV  2   6 (ANTISING)

       EIGENSTATES OF A SPIN-FREE HAMILTONIAN WILL BE COMPUTED BASED ON:

  a Hamiltonian matrix assumed to be diagonal with energies read from the wavefunction file(s).

  Nr of states:                   99

   State:        1   2   3   4   5   6   7   8   9  10  11  12  13  14  15  16  17  18  19  20
  JobIph:        1   1   1   1   1   1   1   1   1   1   1   1   2   2   2   3   3   3   4   4
 Root nr:        1   2   3   4   5   6   7   8   9  10  11  12   1   2   3   1   2   3   1   2

   State:       21  22  23  24  25  26  27  28  29  30  31  32  33  34  35  36  37  38  39  40
  JobIph:        4   4   4   5   5   5   5   5   5   6   7   7   7   7   7   8   8   8   8   8
 Root nr:        3   4   5   1   2   3   4   5   6   1   1   2   3   4   5   1   2   3   4   5

   State:       41  42  43  44  45  46  47  48  49  50  51  52  53  54  55  56  57  58  59  60
  JobIph:        8   9  10  10  10  10  10  11  11  11  11  11  11  12  13  13  13  14  14  14
 Root nr:        6   1   1   2   3   4   5   1   2   3   4   5   6   1   1   2   3   1   2   3

   State:       61  62  63  64  65  66  67  68  69  70  71  72  73  74  75  76  77  78  79  80
  JobIph:       14  14  14  15  15  15  15  15  16  16  16  16  16  16  17  18  18  18  18  18
 Root nr:        4   5   6   1   2   3   4   5   1   2   3   4   5   6   1   1   2   3   4   5

   State:       81  82  83  84  85  86  87  88  89  90  91  92  93  94  95  96  97  98  99
  JobIph:       19  19  19  19  19  19  20  21  21  21  21  21  22  22  22  22  22  22  23
 Root nr:        1   2   3   4   5   6   1   1   2   3   4   5   1   2   3   4   5   6   1

  HAMILTONIAN MATRIX FOR THE ORIGINAL STATES:

  Diagonal, with energies
   -149.60894658   -149.60893407   -149.59710110   -149.44747493   -149.44644096
   -149.44642818   -149.44288182   -149.43809742   -149.43809692   -149.37879905
   -149.37416550   -149.31022986   -149.52769350   -149.52768078   -149.51759912
   -149.60894637   -149.60893387   -149.59710109   -149.60305293   -149.44695591
   -149.44232258   -149.44227394   -149.37828372   -149.60310116   -149.52821900
   -149.52357605   -149.52357491   -149.52182356   -149.45959646   -149.60305298
   -149.60305293   -149.44695591   -149.44232258   -149.44227394   -149.37828372
   -149.60310116   -149.52821900   -149.52357605   -149.52357491   -149.52182356
   -149.45959646   -149.60305298   -149.60894658   -149.44644096   -149.44288182
   -149.43809692   -149.37416550   -149.60895962   -149.52770681   -149.52769350
   -149.52239166   -149.51759912   -149.45368490   -149.60894637   -149.44289762
   -149.37897194   -149.37420047   -149.60894651   -149.60893400   -149.59710110
   -149.52769375   -149.52768102   -149.51759913   -149.60310108   -149.44697633
   -149.44237036   -149.44232235   -149.37840343   -149.60305295   -149.52821906
   -149.52357605   -149.52357500   -149.52182361   -149.45959652   -149.60310131
   -149.60310108   -149.44697633   -149.44237036   -149.44232235   -149.37840343
   -149.60305295   -149.52821906   -149.52357605   -149.52357500   -149.52182361
   -149.45959652   -149.60310131   -149.60895968   -149.44645389   -149.44289762
   -149.43809742   -149.37420047   -149.60894651   -149.52770658   -149.52769375
   -149.52239167   -149.51759913   -149.45368491   -149.60895950

      OVERLAP MATRIX FOR THE ORIGINAL STATES:

  Diagonal, with elements
      1.00000000      1.00000000      1.00000000      1.00000000      1.00000000
      1.00000000      1.00000000      1.00000000      1.00000000      1.00000000
      1.00000000      1.00000000      1.00000000      1.00000000      1.00000000
      1.00000000      1.00000000      1.00000000      1.00000000      1.00000000
      1.00000000      1.00000000      1.00000000      1.00000000      1.00000000
      1.00000000      1.00000000      1.00000000      1.00000000      1.00000000
      1.00000000      1.00000000      1.00000000      1.00000000      1.00000000
      1.00000000      1.00000000      1.00000000      1.00000000      1.00000000
      1.00000000      1.00000000      1.00000000      1.00000000      1.00000000
      1.00000000      1.00000000      1.00000000      1.00000000      1.00000000
      1.00000000      1.00000000      1.00000000      1.00000000      1.00000000
      1.00000000      1.00000000      1.00000000      1.00000000      1.00000000
      1.00000000      1.00000000      1.00000000      1.00000000      1.00000000
      1.00000000      1.00000000      1.00000000      1.00000000      1.00000000
      1.00000000      1.00000000      1.00000000      1.00000000      1.00000000
      1.00000000      1.00000000      1.00000000      1.00000000      1.00000000
      1.00000000      1.00000000      1.00000000      1.00000000      1.00000000
      1.00000000      1.00000000      1.00000000      1.00000000      1.00000000
      1.00000000      1.00000000      1.00000000      1.00000000      1.00000000
      1.00000000      1.00000000      1.00000000      1.00000000

::    RASSI State    1     Total energy:    -149.60894657500299
::    RASSI State    2     Total energy:    -149.60893407322050
::    RASSI State    3     Total energy:    -149.59710109758024
::    RASSI State    4     Total energy:    -149.44747493064307
::    RASSI State    5     Total energy:    -149.44644095967953
::    RASSI State    6     Total energy:    -149.44642817923176
::    RASSI State    7     Total energy:    -149.44288182380529
::    RASSI State    8     Total energy:    -149.43809742118262
::    RASSI State    9     Total energy:    -149.43809691977879
::    RASSI State   10     Total energy:    -149.37879905145999
::    RASSI State   11     Total energy:    -149.37416549806838
::    RASSI State   12     Total energy:    -149.31022985919722
::    RASSI State   13     Total energy:    -149.52769349872244
::    RASSI State   14     Total energy:    -149.52768077600865
::    RASSI State   15     Total energy:    -149.51759912037716
::    RASSI State   16     Total energy:    -149.60894636502647
::    RASSI State   17     Total energy:    -149.60893386779873
::    RASSI State   18     Total energy:    -149.59710109058068
::    RASSI State   19     Total energy:    -149.60305292928786
::    RASSI State   20     Total energy:    -149.44695591418190
::    RASSI State   21     Total energy:    -149.44232257613709
::    RASSI State   22     Total energy:    -149.44227393837102
::    RASSI State   23     Total energy:    -149.37828371545265
::    RASSI State   24     Total energy:    -149.60310115608971
::    RASSI State   25     Total energy:    -149.52821899695124
::    RASSI State   26     Total energy:    -149.52357605360839
::    RASSI State   27     Total energy:    -149.52357491414182
::    RASSI State   28     Total energy:    -149.52182356233342
::    RASSI State   29     Total energy:    -149.45959646482103
::    RASSI State   30     Total energy:    -149.60305298252771
::    RASSI State   31     Total energy:    -149.60305292928783
::    RASSI State   32     Total energy:    -149.44695591418193
::    RASSI State   33     Total energy:    -149.44232257613712
::    RASSI State   34     Total energy:    -149.44227393837076
::    RASSI State   35     Total energy:    -149.37828371545265
::    RASSI State   36     Total energy:    -149.60310115608976
::    RASSI State   37     Total energy:    -149.52821899695115
::    RASSI State   38     Total energy:    -149.52357605360831
::    RASSI State   39     Total energy:    -149.52357491414188
::    RASSI State   40     Total energy:    -149.52182356233340
::    RASSI State   41     Total energy:    -149.45959646482100
::    RASSI State   42     Total energy:    -149.60305298252777
::    RASSI State   43     Total energy:    -149.60894657500305
::    RASSI State   44     Total energy:    -149.44644095967956
::    RASSI State   45     Total energy:    -149.44288182380527
::    RASSI State   46     Total energy:    -149.43809691977867
::    RASSI State   47     Total energy:    -149.37416549806832
::    RASSI State   48     Total energy:    -149.60895961940307
::    RASSI State   49     Total energy:    -149.52770680961029
::    RASSI State   50     Total energy:    -149.52769349872241
::    RASSI State   51     Total energy:    -149.52239166353044
::    RASSI State   52     Total energy:    -149.51759912037699
::    RASSI State   53     Total energy:    -149.45368490027434
::    RASSI State   54     Total energy:    -149.60894636502641
::    RASSI State   55     Total energy:    -149.44289762033478
::    RASSI State   56     Total energy:    -149.37897194253665
::    RASSI State   57     Total energy:    -149.37420046731958
::    RASSI State   58     Total energy:    -149.60894650501098
::    RASSI State   59     Total energy:    -149.60893400474677
::    RASSI State   60     Total energy:    -149.59710109524707
::    RASSI State   61     Total energy:    -149.52769374535697
::    RASSI State   62     Total energy:    -149.52768101906125
::    RASSI State   63     Total energy:    -149.51759913004969
::    RASSI State   64     Total energy:    -149.60310107908023
::    RASSI State   65     Total energy:    -149.44697632509107
::    RASSI State   66     Total energy:    -149.44237035893357
::    RASSI State   67     Total energy:    -149.44232234718348
::    RASSI State   68     Total energy:    -149.37840343313277
::    RASSI State   69     Total energy:    -149.60305294703443
::    RASSI State   70     Total energy:    -149.52821905597830
::    RASSI State   71     Total energy:    -149.52357605338781
::    RASSI State   72     Total energy:    -149.52357500086484
::    RASSI State   73     Total energy:    -149.52182360882571
::    RASSI State   74     Total energy:    -149.45959652077016
::    RASSI State   75     Total energy:    -149.60310131010826
::    RASSI State   76     Total energy:    -149.60310107908026
::    RASSI State   77     Total energy:    -149.44697632509116
::    RASSI State   78     Total energy:    -149.44237035893369
::    RASSI State   79     Total energy:    -149.44232234718359
::    RASSI State   80     Total energy:    -149.37840343313275
::    RASSI State   81     Total energy:    -149.60305294703446
::    RASSI State   82     Total energy:    -149.52821905597833
::    RASSI State   83     Total energy:    -149.52357605338781
::    RASSI State   84     Total energy:    -149.52357500086467
::    RASSI State   85     Total energy:    -149.52182360882568
::    RASSI State   86     Total energy:    -149.45959652077019
::    RASSI State   87     Total energy:    -149.60310131010826
::    RASSI State   88     Total energy:    -149.60895968058688
::    RASSI State   89     Total energy:    -149.44645389411585
::    RASSI State   90     Total energy:    -149.44289762033472
::    RASSI State   91     Total energy:    -149.43809742125629
::    RASSI State   92     Total energy:    -149.37420046731958
::    RASSI State   93     Total energy:    -149.60894650501101
::    RASSI State   94     Total energy:    -149.52770657577832
::    RASSI State   95     Total energy:    -149.52769374535697
::    RASSI State   96     Total energy:    -149.52239166872707
::    RASSI State   97     Total energy:    -149.51759913004966
::    RASSI State   98     Total energy:    -149.45368490951532
::    RASSI State   99     Total energy:    -149.60895949703468



      ****************************************************************************************************
      *                                                                                                  *
      *                                         Spin-free section                                        *
      *                                                                                                  *
      *                 Note: index according to input order, order according to energy.                 *
      *                                                                                                  *
      ****************************************************************************************************



  SPIN-FREE ENERGIES:
  (Shifted by EMIN (a.u.) =       -149.6089596806)

 SF State       Relative EMIN(au)   Rel lowest level(eV)    D:o, cm**(-1)      L_eff   Abs_M

    88             0.0000000000        0.0000000000              0.0000         1.0     0.0
    48             0.0000000612        0.0000016649              0.0134         1.0     0.0
    99             0.0000001836        0.0000049947              0.0403         1.0     0.0
    43             0.0000131056        0.0003566211              2.8763         2.0     2.0
     1             0.0000131056        0.0003566211              2.8763         2.0     2.0
    93             0.0000131756        0.0003585257              2.8917         2.0     2.0
    58             0.0000131756        0.0003585257              2.8917         2.0     2.0
    16             0.0000133156        0.0003623349              2.9224         2.0     2.0
    54             0.0000133156        0.0003623349              2.9224         2.0     2.0
     2             0.0000256074        0.0006968119              5.6202         1.0     0.0
    59             0.0000256758        0.0006986752              5.6352         1.0     0.0
    17             0.0000258128        0.0007024017              5.6653         1.0     0.0
    75             0.0058583705        0.1594143819           1285.7637         2.0     1.0
    87             0.0058583705        0.1594143819           1285.7637         2.0     1.0
    36             0.0058585245        0.1594185729           1285.7975         2.0     1.0
    24             0.0058585245        0.1594185729           1285.7975         2.0     1.0
    76             0.0058586015        0.1594206685           1285.8144         2.0     1.0
    64             0.0058586015        0.1594206685           1285.8144         2.0     1.0
    42             0.0059066981        0.1607294423           1296.3704         1.0     1.0
    30             0.0059066981        0.1607294423           1296.3704         1.0     1.0
    81             0.0059067336        0.1607304081           1296.3782         1.0     1.0
    69             0.0059067336        0.1607304081           1296.3782         1.0     1.0
    19             0.0059067513        0.1607308911           1296.3821         1.0     1.0
    31             0.0059067513        0.1607308911           1296.3821         1.0     1.0
     3             0.0118585830        0.3226884825           2602.6581         1.6     0.0
    60             0.0118585853        0.3226885460           2602.6586         1.6     0.0
    18             0.0118585900        0.3226886730           2602.6597         1.6     0.0
    82             0.0807406246        2.1970643220          17720.5188         2.4     1.0
    70             0.0807406246        2.1970643220          17720.5188         2.4     1.0
    25             0.0807406836        2.1970659282          17720.5318         2.4     1.0
    37             0.0807406836        2.1970659282          17720.5318         2.4     1.0
    49             0.0812528710        2.2110032557          17832.9439         2.0     0.0
    94             0.0812531048        2.2110096186          17832.9952         2.0     0.0
    61             0.0812659352        2.2113587522          17835.8112         2.7     2.0
    95             0.0812659352        2.2113587522          17835.8112         2.7     2.0
    13             0.0812661819        2.2113654634          17835.8653         2.7     2.0
    50             0.0812661819        2.2113654635          17835.8653         2.7     2.0
    62             0.0812786615        2.2117050523          17838.6043         2.0     0.0
    14             0.0812789046        2.2117116661          17838.6576         2.0     0.0
    26             0.0853836270        2.3234068528          18739.5401         1.6     1.0
    38             0.0853836270        2.3234068528          18739.5401         1.6     1.0
    71             0.0853836272        2.3234068588          18739.5401         1.6     1.0
    83             0.0853836272        2.3234068588          18739.5401         1.6     1.0
    72             0.0853846797        2.3234354994          18739.7711         3.0     3.0
    84             0.0853846797        2.3234354994          18739.7711         3.0     3.0
    39             0.0853847664        2.3234378593          18739.7901         3.0     3.0
    27             0.0853847664        2.3234378593          18739.7901         3.0     3.0
    96             0.0865680119        2.3556356073          18999.4825         2.4     0.0
    51             0.0865680171        2.3556357487          18999.4836         2.4     0.0
    73             0.0871360718        2.3710933047          19124.1572         2.4     1.0
    85             0.0871360718        2.3710933047          19124.1572         2.4     1.0
    28             0.0871361183        2.3710945698          19124.1674         2.4     1.0
    40             0.0871361183        2.3710945698          19124.1674         2.4     1.0
    63             0.0913605505        2.4860472283          20051.3232         2.4     2.0
    97             0.0913605505        2.4860472283          20051.3232         2.4     2.0
    15             0.0913605602        2.4860474915          20051.3253         2.4     2.0
    52             0.0913605602        2.4860474915          20051.3253         2.4     2.0
    86             0.1493631598        4.0643786327          32781.4244         1.0     1.0
    74             0.1493631598        4.0643786327          32781.4244         1.0     1.0
    29             0.1493632158        4.0643801551          32781.4367         1.0     1.0
    41             0.1493632158        4.0643801551          32781.4367         1.0     1.0
    98             0.1552747711        4.2252417699          34078.8731         1.0     0.0
    53             0.1552747803        4.2252420213          34078.8752         1.0     0.0
     4             0.1614847499        4.3942239036          35441.8060         3.0     0.0
    77             0.1619833555        4.4077916518          35551.2372         3.8     1.0
    65             0.1619833555        4.4077916518          35551.2372         3.8     1.0
    32             0.1620037664        4.4083470609          35555.7169         2.0     1.0
    20             0.1620037664        4.4083470609          35555.7169         2.0     1.0
    89             0.1625057865        4.4220077229          35665.8976         2.7     0.0
    44             0.1625187209        4.4223596868          35668.7364         3.3     2.0
     5             0.1625187209        4.4223596868          35668.7364         3.3     2.0
     6             0.1625315014        4.4227074605          35671.5413         2.7     0.0
    55             0.1660620603        4.5187788623          36446.4095         3.0     2.0
    90             0.1660620603        4.5187788623          36446.4095         3.0     2.0
     7             0.1660778568        4.5192087078          36449.8764         3.0     2.0
    45             0.1660778568        4.5192087078          36449.8764         3.0     2.0
    78             0.1665893217        4.5331263760          36562.1300         4.0     3.0
    66             0.1665893217        4.5331263760          36562.1300         4.0     3.0
    33             0.1666371044        4.5344266121          36572.6171         2.4     1.0
    21             0.1666371044        4.5344266121          36572.6171         2.4     1.0
    79             0.1666373334        4.5344328422          36572.6673         2.4     1.0
    67             0.1666373334        4.5344328422          36572.6673         2.4     1.0
    22             0.1666857422        4.5357501131          36583.2918         3.0     3.0
    34             0.1666857422        4.5357501131          36583.2918         3.0     3.0
    91             0.1708622593        4.6493989335          37499.9314         1.6     0.0
     8             0.1708622594        4.6493989355          37499.9314         1.6     0.0
     9             0.1708627608        4.6494125794          37500.0414         4.0     4.0
    46             0.1708627608        4.6494125794          37500.0414         4.0     4.0
    56             0.2299877381        6.2582851719          50476.4740         2.0     0.0
    10             0.2301606291        6.2629897778          50514.4192         2.0     0.0
    68             0.2305562475        6.2737551009          50601.2474         2.0     1.0
    80             0.2305562475        6.2737551009          50601.2474         2.0     1.0
    23             0.2306759651        6.2770127849          50627.5224         2.0     1.0
    35             0.2306759651        6.2770127849          50627.5224         2.0     1.0
    92             0.2347592133        6.3881236270          51523.6918         2.0     2.0
    57             0.2347592133        6.3881236270          51523.6918         2.0     2.0
    11             0.2347941825        6.3890751888          51531.3667         2.0     2.0
    47             0.2347941825        6.3890751888          51531.3667         2.0     2.0
    12             0.2987298214        8.1288525530          65563.6174         0.0     0.0

++ Dipole transition strengths (spin-free states):
   -----------------------------------------------
     for osc. strength at least  1.00000000E-05

  ( Max oscillator strength is only    2.7846561446221768E-008 )
--

++ Velocity transition strengths (spin-free states):
   -------------------------------------------------
     for osc. strength at least  1.00000000E-05

      From   To        Osc. strength     Einstein coefficients Ax, Ay, Az (sec-1)    Total A (sec-1)
     -----------------------------------------------------------------------------------------------
        75   30       1.89210418E-04  0.00000000E+00  0.00000000E+00  1.41986167E-02  1.41986167E-02
        87   42       1.89210418E-04  0.00000000E+00  0.00000000E+00  1.41986166E-02  1.41986166E-02
        36   81       1.89582380E-04  0.00000000E+00  0.00000000E+00  1.41568326E-02  1.41568326E-02
        24   69       1.89582380E-04  0.00000000E+00  0.00000000E+00  1.41568326E-02  1.41568326E-02
        76   31       1.89769057E-04  0.00000000E+00  0.00000000E+00  1.41359539E-02  1.41359539E-02
        64   19       1.89769057E-04  0.00000000E+00  0.00000000E+00  1.41359539E-02  1.41359539E-02
        96   73       5.94375805E-05  0.00000000E+00  6.16254741E-01  0.00000000E+00  6.16254741E-01
        96   85       5.94375805E-05  6.16254741E-01  0.00000000E+00  0.00000000E+00  6.16254741E-01
        51   28       5.94273193E-05  0.00000000E+00  6.16237939E-01  0.00000000E+00  6.16237939E-01
        51   40       5.94273193E-05  6.16237939E-01  0.00000000E+00  0.00000000E+00  6.16237939E-01
         4   32       1.64089474E-05  0.00000000E+00  1.42021427E-01  0.00000000E+00  1.42021427E-01
         4   20       1.64089474E-05  1.42021427E-01  0.00000000E+00  0.00000000E+00  1.42021427E-01
        77   32       2.95509750E-04  0.00000000E+00  0.00000000E+00  3.95555475E-03  3.95555475E-03
        65   20       2.95509751E-04  0.00000000E+00  0.00000000E+00  3.95555474E-03  3.95555474E-03
        55   78       1.77352850E-05  0.00000000E+00  1.58416719E-01  0.00000000E+00  1.58416719E-01
        55   66       1.77352850E-05  1.58416719E-01  0.00000000E+00  0.00000000E+00  1.58416719E-01
        55   79       4.57254529E-05  0.00000000E+00  4.86202413E-01  0.00000000E+00  4.86202413E-01
        55   67       4.57254529E-05  4.86202413E-01  0.00000000E+00  0.00000000E+00  4.86202413E-01
        90   78       1.77352850E-05  1.58416719E-01  0.00000000E+00  0.00000000E+00  1.58416719E-01
        90   66       1.77352850E-05  0.00000000E+00  1.58416719E-01  0.00000000E+00  1.58416719E-01
        90   79       4.57254529E-05  4.86202412E-01  0.00000000E+00  0.00000000E+00  4.86202412E-01
        90   67       4.57254529E-05  0.00000000E+00  4.86202413E-01  0.00000000E+00  4.86202413E-01
         7   33       4.69159481E-05  0.00000000E+00  4.71454455E-01  0.00000000E+00  4.71454455E-01
         7   21       4.69159481E-05  4.71454455E-01  0.00000000E+00  0.00000000E+00  4.71454455E-01
         7   22       1.60516826E-05  1.90578946E-01  0.00000000E+00  0.00000000E+00  1.90578946E-01
         7   34       1.60516825E-05  0.00000000E+00  1.90578945E-01  0.00000000E+00  1.90578945E-01
        45   33       4.69159481E-05  4.71454455E-01  0.00000000E+00  0.00000000E+00  4.71454455E-01
        45   21       4.69159482E-05  0.00000000E+00  4.71454456E-01  0.00000000E+00  4.71454456E-01
        45   22       1.60516825E-05  0.00000000E+00  1.90578945E-01  0.00000000E+00  1.90578945E-01
        45   34       1.60516825E-05  1.90578945E-01  0.00000000E+00  0.00000000E+00  1.90578945E-01
        78   34       2.02575157E-04  0.00000000E+00  0.00000000E+00  6.05112873E-02  6.05112873E-02
        66   22       2.02575158E-04  0.00000000E+00  0.00000000E+00  6.05112871E-02  6.05112871E-02
        33    8       1.51134652E-05  0.00000000E+00  8.66882460E+00  0.00000000E+00  8.66882460E+00
        21    8       1.51134652E-05  8.66882460E+00  0.00000000E+00  0.00000000E+00  8.66882460E+00
        79   91       1.51169041E-05  8.66985708E+00  0.00000000E+00  0.00000000E+00  8.66985708E+00
        67   91       1.51169041E-05  0.00000000E+00  8.66985708E+00  0.00000000E+00  8.66985708E+00
        56   10       1.09417302E-04  0.00000000E+00  0.00000000E+00  1.05085318E-01  1.05085318E-01
        10   23       5.18166035E-05  4.42141013E-01  0.00000000E+00  0.00000000E+00  4.42141013E-01
        10   35       5.18166035E-05  0.00000000E+00  4.42141013E-01  0.00000000E+00  4.42141013E-01
        68   23       3.47944644E-05  0.00000000E+00  0.00000000E+00  1.60227709E-02  1.60227709E-02
        80   35       3.47944644E-05  0.00000000E+00  0.00000000E+00  1.60227709E-02  1.60227709E-02
     -----------------------------------------------------------------------------------------------
--

++ Length and velocity gauge comparison (spin-free states):
   --------------------------------------------------------

 --------------------------------------------------
 A comparison between the dipole oscillator strengths in 
 length and velocity gauge will be performed

     All dipole oscillator differences above the tolerance of   1.00000000E-01  will be printed 

 Due to basis set deficiency these oscillator may be problematic 

 The tolerance is defined as ABS(1-O_l/O_v) 
 O_l : dipole oscillator strength in length gauge
 O_p : dipole oscillator strength in velocity gauge
 --------------------------------------------------

  Problematic transitions have been found

      From   To       Difference (%) Osc. st. (len.) Osc. st. (vel.)
     ---------------------------------------------------------------
        75   30      --------------- below threshold  1.89210418E-04
        87   42      --------------- below threshold  1.89210418E-04
        36   81      --------------- below threshold  1.89582380E-04
        24   69      --------------- below threshold  1.89582380E-04
        76   31      --------------- below threshold  1.89769057E-04
        64   19      --------------- below threshold  1.89769057E-04
        96   73      --------------- below threshold  5.94375805E-05
        96   85      --------------- below threshold  5.94375805E-05
        51   28      --------------- below threshold  5.94273193E-05
        51   40      --------------- below threshold  5.94273193E-05
         4   32      --------------- below threshold  1.64089474E-05
         4   20      --------------- below threshold  1.64089474E-05
        77   32      --------------- below threshold  2.95509750E-04
        65   20      --------------- below threshold  2.95509751E-04
        55   78      --------------- below threshold  1.77352850E-05
        55   66      --------------- below threshold  1.77352850E-05
        55   79      --------------- below threshold  4.57254529E-05
        55   67      --------------- below threshold  4.57254529E-05
        90   78      --------------- below threshold  1.77352850E-05
        90   66      --------------- below threshold  1.77352850E-05
        90   79      --------------- below threshold  4.57254529E-05
        90   67      --------------- below threshold  4.57254529E-05
         7   33      --------------- below threshold  4.69159481E-05
         7   21      --------------- below threshold  4.69159481E-05
         7   22      --------------- below threshold  1.60516826E-05
         7   34      --------------- below threshold  1.60516825E-05
        45   33      --------------- below threshold  4.69159481E-05
        45   21      --------------- below threshold  4.69159482E-05
        45   22      --------------- below threshold  1.60516825E-05
        45   34      --------------- below threshold  1.60516825E-05
        78   34      --------------- below threshold  2.02575157E-04
        66   22      --------------- below threshold  2.02575158E-04
        33    8      --------------- below threshold  1.51134652E-05
        21    8      --------------- below threshold  1.51134652E-05
        79   91      --------------- below threshold  1.51169041E-05
        67   91      --------------- below threshold  1.51169041E-05
        56   10      --------------- below threshold  1.09417302E-04
        10   23      --------------- below threshold  5.18166035E-05
        10   35      --------------- below threshold  5.18166035E-05
        68   23      --------------- below threshold  3.47944644E-05
        80   35      --------------- below threshold  3.47944644E-05
     ---------------------------------------------------------------

 Number of problematic transitions =                    41

--

 Electric-dipole - electric-octupole not included
 Electric-dipole - magnetic-quadrupole not included


      ****************************************************************************************************
      *                                                                                                  *
      *                                    Special properties section                                    *
      *                                                                                                  *
      ****************************************************************************************************


++ I/O STATISTICS
 
  I. General I/O information
  - - - - - - - - - - - - - - - - - - - - - - - - - - - - - - - - - - - - - - - - - - -
  Unit  Name          Flsize      Write/Read            MBytes           Write/Read
                      (MBytes)       Calls              In/Out           Time, sec.
  - - - - - - - - - - - - - - - - - - - - - - - - - - - - - - - - - - - - - - - - - - -
   1  RUNFILE           0.99 .     266/  263135 .      2.5/   1903.5 .       0/       0
   2  ANNI              0.00 .       0/       0 .      0.0/      0.0 .       0/       0
   3  ONEINT            1.54 .       0/  126040 .      0.0/ 152831.4 .       0/      18
   4  JOBIPH            1.52 .       0/     651 .      0.0/      1.5 .       0/       0
   5  JOBIPH01          1.22 .       0/     219 .      0.0/      1.3 .       0/       0
   6  JOBIPH02          1.22 .       0/     219 .      0.0/      1.3 .       0/       0
   7  JOBIPH03          1.28 .       0/     315 .      0.0/      1.4 .       0/       0
   8  JOBIPH04          1.32 .       0/     363 .      0.0/      1.4 .       0/       0
   9  JOBIPH05          1.15 .       0/     123 .      0.0/      1.3 .       0/       0
  10  JOBIPH06          1.28 .       0/     315 .      0.0/      1.4 .       0/       0
  11  JOBIPH07          1.32 .       0/     363 .      0.0/      1.4 .       0/       0
  12  JOBIPH08          1.15 .       0/     123 .      0.0/      1.3 .       0/       0
  13  JOBIPH09          1.28 .       0/     315 .      0.0/      1.4 .       0/       0
  14  JOBIPH10          1.32 .       0/     363 .      0.0/      1.4 .       0/       0
  15  JOBIPH11          1.15 .       0/     123 .      0.0/      1.3 .       0/       0
  16  JOBIPH12          1.22 .       0/     219 .      0.0/      1.3 .       0/       0
  17  JOBIPH13          1.32 .       0/     363 .      0.0/      1.4 .       0/       0
  18  JOBIPH14          1.28 .       0/     315 .      0.0/      1.4 .       0/       0
  19  JOBIPH15          1.32 .       0/     363 .      0.0/      1.4 .       0/       0
  20  JOBIPH16          1.15 .       0/     123 .      0.0/      1.3 .       0/       0
  21  JOBIPH17          1.28 .       0/     315 .      0.0/      1.4 .       0/       0
  22  JOBIPH18          1.32 .       0/     363 .      0.0/      1.4 .       0/       0
  23  JOBIPH19          1.15 .       0/     123 .      0.0/      1.3 .       0/       0
  24  JOBIPH20          1.28 .       0/     315 .      0.0/      1.4 .       0/       0
  25  JOBIPH21          1.32 .       0/     363 .      0.0/      1.4 .       0/       0
  26  JOBIPH22          1.15 .       0/     123 .      0.0/      1.3 .       0/       0
  - - - - - - - - - - - - - - - - - - - - - - - - - - - - - - - - - - - - - - - - - - -
   *  TOTAL            31.50 .     266/  395652 .      2.5/ 154766.0 .       0/      19
  - - - - - - - - - - - - - - - - - - - - - - - - - - - - - - - - - - - - - - - - - - -
 
  II. I/O Access Patterns
  - - - - - - - - - - - - - - - - - - - -
  Unit  Name               % of random
                         Write/Read calls
  - - - - - - - - - - - - - - - - - - - -
   1  RUNFILE             28.6/  11.1
   2  ANNI                 0.0/   0.0
   3  ONEINT               0.0/  99.3
   4  JOBIPH               0.0/  51.9
   5  JOBIPH01             0.0/  55.7
   6  JOBIPH02             0.0/  55.7
   7  JOBIPH03             0.0/  54.0
   8  JOBIPH04             0.0/  53.4
   9  JOBIPH05             0.0/  60.2
  10  JOBIPH06             0.0/  54.0
  11  JOBIPH07             0.0/  53.4
  12  JOBIPH08             0.0/  60.2
  13  JOBIPH09             0.0/  54.0
  14  JOBIPH10             0.0/  53.4
  15  JOBIPH11             0.0/  60.2
  16  JOBIPH12             0.0/  55.7
  17  JOBIPH13             0.0/  53.4
  18  JOBIPH14             0.0/  54.0
  19  JOBIPH15             0.0/  53.4
  20  JOBIPH16             0.0/  60.2
  21  JOBIPH17             0.0/  54.0
  22  JOBIPH18             0.0/  53.4
  23  JOBIPH19             0.0/  60.2
  24  JOBIPH20             0.0/  54.0
  25  JOBIPH21             0.0/  53.4
  26  JOBIPH22             0.0/  60.2
  - - - - - - - - - - - - - - - - - - - -
--
--- Stop Module: rassi at Thu Apr 17 11:09:31 2025 /rc=_RC_ALL_IS_WELL_ ---
--- Module rassi spent 40 seconds ---

.##################.
.# Happy landing! #.
.##################.

    Timing: Wall=40.02 User=19.87 System=19.76
