   This run of MOLCAS is using the pymolcas driver

                             OPE
                             OPE          NMOL  CASOP  ENMOLC A   SO
                 OPE        NMOLC        AS  OP EN  MO LC     AS  OP
                OPENM       OL CA        SO  PE NM  OL CA     SOP EN
                OP EN      MO   LC       AS  OP ENMOL  CASO   PENMOL
                OP  EN     MO   LC       AS  OP EN     MO     LC ASO
               OP   E  NMOL  C  AS       OP  EN MO     LC     AS  OP
               OP  E   NMO   LC AS        OPEN  MO     LCASOP EN   M
               O  PEN   MO  LCA  SO
            OPE   NMO   L   CAS    OP
        OPENMOL  CASOP     ENMOL   CASOPE
     OPENMOLCA   SOPENMOLCASOPEN   MOLCASOPE
    OPENMOLCAS   OP           EN   MOL    CAS
    OPENMOLCAS       OP  ENM        O     LCA
    OPENMOLCAS    OPEN  MOLCASO     P  E  NMO
    OPENMOLCAS     OP               E  N  MOL
    OPENMOLCA   SO           PENM   O  L  CAS    OPEN    MO    LCAS
    OPENMOLCA   SOP           ENM   O  L  CAS   OP  EN  MOLC  AS   O
    OPENMOLCA   SOPE           NM      O  LCA   S      OP  EN MO
    OPENMOLC                AS         O  PEN   M      OL  CA  SOPE
    OPENMO        LCASOPE  NMOL        C  ASO   P      ENMOLC     AS
    OPE     NMO      LCA  SO     P     E   NM   OL  CA SO  PE N   MO
          OPENMOLCA            SOPE   NMO        LCAS  O    P  ENMO
     OPENMOLCASOPENMOLCASOPENMOLCASOPENMOLCA
        OPENMOLCASOPENMOLCASOPENMOLCASOPE
            OPENMOLCASOPENMOLCASOPENM
               OPENMOLCASOPENMOLCA        version: 25.02
                   OPENMOLCASO
                       OPE                tag: 92-gf4b470f0a

 OpenMolcas is free software; you can redistribute it and/or modify it
 under the terms of the GNU Lesser General Public License version 2.1.
 OpenMolcas is distributed in the hope that it will be useful, but it
 is provided "as is" and without any express or implied warranties.
 For more details see the full text of the license in the file
 LICENSE or in <http://www.gnu.org/licenses/>.

                 Copyright (C) The OpenMolcas Authors
           For the author list and the recommended citation,
                   consult the file CONTRIBUTORS.md

           *************************************************
           * pymolcas version py2.29                       *
           *   build 2ba4516c4d154a59cba941070ba63e2c      *
           *   (after the EMIL interpreter by V. Veryazov) *
           *************************************************

configuration info
------------------
Host name: iftia91.univ.gda.pl (Linux)
C Compiler ID: GNU
C flags: -std=gnu99
Fortran Compiler ID: GNU
Fortran flags: -cpp -fdefault-integer-8 -fmax-stack-var-size=1048576
Definitions: _MOLCAS_;_I8_;_LINUX_
Parallel: OFF (GA=OFF)


   --------------------------------------------------------------------
  |
  |           Project: O2
  |    Submitted from: /scratch/tecumseh/WorkSpace/O2.2.7500
  |      Scratch area: /scratch/tecumseh/WorkSpace/O2.2.7500
  |   Save outputs to: WORKDIR
  |            Molcas: /home/tecumseh/program/OpenMolcas/build
  |
  | Scratch area is NOT empty
  |
  |    MOLCAS_DRIVER = /home/tecumseh/program/OpenMolcas/build/pymolcas
  |    MOLCAS_NPROCS = 1
  |    MOLCAS_SOURCE = /home/tecumseh/program/OpenMolcas/OpenMolcas
  | MOLCAS_STRUCTURE = 0
  |
   --------------------------------------------------------------------

++ ---------   Input file   ---------

>>> COPY $dir/vectors/$Project.$R.1Ag-12S.JobIph $WorkDir/JOBIPH

>>> COPY $dir/vectors/$Project.$R.3Ag-3S.JobIph $WorkDir/JOBIPH01

>>> COPY $dir/vectors/$Project.$R.5Ag-3S.JobIph $WorkDir/JOBIPH02

>>> COPY $dir/vectors/$Project.$R.1B3u-5S.JobIph $WorkDir/JOBIPH03

>>> COPY $dir/vectors/$Project.$R.3B3u-6S.JobIph $WorkDir/JOBIPH04

>>> COPY $dir/vectors/$Project.$R.5B3u-1S.JobIph $WorkDir/JOBIPH05

>>> COPY $dir/vectors/$Project.$R.1B2u-5S.JobIph $WorkDir/JOBIPH06

>>> COPY $dir/vectors/$Project.$R.3B2u-6S.JobIph $WorkDir/JOBIPH07

>>> COPY $dir/vectors/$Project.$R.5B2u-1S.JobIph $WorkDir/JOBIPH08

>>> COPY $dir/vectors/$Project.$R.1B1g-5S.JobIph $WorkDir/JOBIPH09

>>> COPY $dir/vectors/$Project.$R.3B1g-6S.JobIph $WorkDir/JOBIPH10

>>> COPY $dir/vectors/$Project.$R.5B1g-1S.JobIph $WorkDir/JOBIPH11

>>> COPY $dir/vectors/$Project.$R.1B1u-3S.JobIph $WorkDir/JOBIPH12

>>> COPY $dir/vectors/$Project.$R.3B1u-6S.JobIph $WorkDir/JOBIPH13

>>> COPY $dir/vectors/$Project.$R.1B2g-5S.JobIph $WorkDir/JOBIPH14

>>> COPY $dir/vectors/$Project.$R.3B2g-6S.JobIph $WorkDir/JOBIPH15

>>> COPY $dir/vectors/$Project.$R.5B2g-1S.JobIph $WorkDir/JOBIPH16

>>> COPY $dir/vectors/$Project.$R.1B3g-5S.JobIph $WorkDir/JOBIPH17

>>> COPY $dir/vectors/$Project.$R.3B3g-6S.JobIph $WorkDir/JOBIPH18

>>> COPY $dir/vectors/$Project.$R.5B3g-1S.JobIph $WorkDir/JOBIPH19

>>> COPY $dir/vectors/$Project.$R.1Au-5S.JobIph $WorkDir/JOBIPH20

>>> COPY $dir/vectors/$Project.$R.3Au-6S.JobIph $WorkDir/JOBIPH21

>>> COPY $dir/vectors/$Project.$R.5Au-1S.JobIph $WorkDir/JOBIPH22

&RASSI

OMEGa
NROF=23 12 3 3 5 6 1 5 6 1 5 6 1 3 6 5 6 1 5 6 1 5 6 1
1 2 3 4 5 6 7 8 9 10 11 12
1 2 3
1 2 3
1 2 3 4 5
1 2 3 4 5 6
1
1 2 3 4 5
1 2 3 4 5 6
1
1 2 3 4 5
1 2 3 4 5 6
1
1 2 3
1 2 3 4 5 6
1 2 3 4 5
1 2 3 4 5 6
1
1 2 3 4 5
1 2 3 4 5 6
1
1 2 3 4 5
1 2 3 4 5 6
1
EJOB

-- ----------------------------------

>>> COPY /home/tecumseh/project/molecule/O2/OpenMolcas/vectors/O2.2.7500.1Ag-12S.JobIph /scratch/tecumseh/WorkSpace/O2.2.7500/JOBIPH

>>> COPY /home/tecumseh/project/molecule/O2/OpenMolcas/vectors/O2.2.7500.3Ag-3S.JobIph /scratch/tecumseh/WorkSpace/O2.2.7500/JOBIPH01

>>> COPY /home/tecumseh/project/molecule/O2/OpenMolcas/vectors/O2.2.7500.5Ag-3S.JobIph /scratch/tecumseh/WorkSpace/O2.2.7500/JOBIPH02

>>> COPY /home/tecumseh/project/molecule/O2/OpenMolcas/vectors/O2.2.7500.1B3u-5S.JobIph /scratch/tecumseh/WorkSpace/O2.2.7500/JOBIPH03

>>> COPY /home/tecumseh/project/molecule/O2/OpenMolcas/vectors/O2.2.7500.3B3u-6S.JobIph /scratch/tecumseh/WorkSpace/O2.2.7500/JOBIPH04

>>> COPY /home/tecumseh/project/molecule/O2/OpenMolcas/vectors/O2.2.7500.5B3u-1S.JobIph /scratch/tecumseh/WorkSpace/O2.2.7500/JOBIPH05

>>> COPY /home/tecumseh/project/molecule/O2/OpenMolcas/vectors/O2.2.7500.1B2u-5S.JobIph /scratch/tecumseh/WorkSpace/O2.2.7500/JOBIPH06

>>> COPY /home/tecumseh/project/molecule/O2/OpenMolcas/vectors/O2.2.7500.3B2u-6S.JobIph /scratch/tecumseh/WorkSpace/O2.2.7500/JOBIPH07

>>> COPY /home/tecumseh/project/molecule/O2/OpenMolcas/vectors/O2.2.7500.5B2u-1S.JobIph /scratch/tecumseh/WorkSpace/O2.2.7500/JOBIPH08

>>> COPY /home/tecumseh/project/molecule/O2/OpenMolcas/vectors/O2.2.7500.1B1g-5S.JobIph /scratch/tecumseh/WorkSpace/O2.2.7500/JOBIPH09

>>> COPY /home/tecumseh/project/molecule/O2/OpenMolcas/vectors/O2.2.7500.3B1g-6S.JobIph /scratch/tecumseh/WorkSpace/O2.2.7500/JOBIPH10

>>> COPY /home/tecumseh/project/molecule/O2/OpenMolcas/vectors/O2.2.7500.5B1g-1S.JobIph /scratch/tecumseh/WorkSpace/O2.2.7500/JOBIPH11

>>> COPY /home/tecumseh/project/molecule/O2/OpenMolcas/vectors/O2.2.7500.1B1u-3S.JobIph /scratch/tecumseh/WorkSpace/O2.2.7500/JOBIPH12

>>> COPY /home/tecumseh/project/molecule/O2/OpenMolcas/vectors/O2.2.7500.3B1u-6S.JobIph /scratch/tecumseh/WorkSpace/O2.2.7500/JOBIPH13

>>> COPY /home/tecumseh/project/molecule/O2/OpenMolcas/vectors/O2.2.7500.1B2g-5S.JobIph /scratch/tecumseh/WorkSpace/O2.2.7500/JOBIPH14

>>> COPY /home/tecumseh/project/molecule/O2/OpenMolcas/vectors/O2.2.7500.3B2g-6S.JobIph /scratch/tecumseh/WorkSpace/O2.2.7500/JOBIPH15

>>> COPY /home/tecumseh/project/molecule/O2/OpenMolcas/vectors/O2.2.7500.5B2g-1S.JobIph /scratch/tecumseh/WorkSpace/O2.2.7500/JOBIPH16

>>> COPY /home/tecumseh/project/molecule/O2/OpenMolcas/vectors/O2.2.7500.1B3g-5S.JobIph /scratch/tecumseh/WorkSpace/O2.2.7500/JOBIPH17

>>> COPY /home/tecumseh/project/molecule/O2/OpenMolcas/vectors/O2.2.7500.3B3g-6S.JobIph /scratch/tecumseh/WorkSpace/O2.2.7500/JOBIPH18

>>> COPY /home/tecumseh/project/molecule/O2/OpenMolcas/vectors/O2.2.7500.5B3g-1S.JobIph /scratch/tecumseh/WorkSpace/O2.2.7500/JOBIPH19

>>> COPY /home/tecumseh/project/molecule/O2/OpenMolcas/vectors/O2.2.7500.1Au-5S.JobIph /scratch/tecumseh/WorkSpace/O2.2.7500/JOBIPH20

>>> COPY /home/tecumseh/project/molecule/O2/OpenMolcas/vectors/O2.2.7500.3Au-6S.JobIph /scratch/tecumseh/WorkSpace/O2.2.7500/JOBIPH21

>>> COPY /home/tecumseh/project/molecule/O2/OpenMolcas/vectors/O2.2.7500.5Au-1S.JobIph /scratch/tecumseh/WorkSpace/O2.2.7500/JOBIPH22

--- Start Module: rassi at Thu Apr 17 11:09:41 2025 ---

()()()()()()()()()()()()()()()()()()()()()()()()()()()()()()()()()()()()()()()()()()()()()()()()()()

                                               &RASSI

                                   only a single process is used
                       available to each process: 2.0 GB of memory, 1 thread?
                                            pid: 299652
()()()()()()()()()()()()()()()()()()()()()()()()()()()()()()()()()()()()()()()()()()()()()()()()()()


      ********************************************************************************
      *                                                                              *
      *                             General data section                             *
      *                                                                              *
      ********************************************************************************

   Specific data for JOBIPH file JOBIPH
   -------------------------------------

   Header from SEWARD:
                            O2, D2h symmetry, aug-cc-pVTZ                      
        Integrals generated by Gateway/Seward, Wed Apr 16 15:48:18 2025        

   CASSCF title (first line only):
       O2, 1Ag 12S                                                             

  STATE IRREP:                1
  SPIN MULTIPLICITY:          1
  ACTIVE ELECTRONS:          12
  MAX RAS1 HOLES:             0
  MAX RAS3 ELECTRONS:         0
  NR OF CONFIG:              60

   Specific data for JOBIPH file JOBIPH01
   -------------------------------------

   Header from SEWARD:
                            O2, D2h symmetry, aug-cc-pVTZ                      
        Integrals generated by Gateway/Seward, Wed Apr 16 15:48:18 2025        

   CASSCF title (first line only):
       O2, 3Ag  3S                                                             

  STATE IRREP:                1
  SPIN MULTIPLICITY:          3
  ACTIVE ELECTRONS:          12
  MAX RAS1 HOLES:             0
  MAX RAS3 ELECTRONS:         0
  NR OF CONFIG:              42

   Specific data for JOBIPH file JOBIPH02
   -------------------------------------

   Header from SEWARD:
                            O2, D2h symmetry, aug-cc-pVTZ                      
        Integrals generated by Gateway/Seward, Wed Apr 16 15:48:18 2025        

   CASSCF title (first line only):
       O2, 5Ag  3S                                                             

  STATE IRREP:                1
  SPIN MULTIPLICITY:          5
  ACTIVE ELECTRONS:          12
  MAX RAS1 HOLES:             0
  MAX RAS3 ELECTRONS:         0
  NR OF CONFIG:              10

   Specific data for JOBIPH file JOBIPH03
   -------------------------------------

   Header from SEWARD:
                            O2, D2h symmetry, aug-cc-pVTZ                      
        Integrals generated by Gateway/Seward, Thu Apr 17 11:09:31 2025        

   CASSCF title (first line only):
       O2, 1B3u 5S                                                             

  STATE IRREP:                2
  SPIN MULTIPLICITY:          1
  ACTIVE ELECTRONS:          12
  MAX RAS1 HOLES:             0
  MAX RAS3 ELECTRONS:         0
  NR OF CONFIG:              40

   Specific data for JOBIPH file JOBIPH04
   -------------------------------------

   Header from SEWARD:
                            O2, D2h symmetry, aug-cc-pVTZ                      
        Integrals generated by Gateway/Seward, Wed Apr 16 15:48:18 2025        

   CASSCF title (first line only):
       O2, 3B3u 6S                                                             

  STATE IRREP:                2
  SPIN MULTIPLICITY:          3
  ACTIVE ELECTRONS:          12
  MAX RAS1 HOLES:             0
  MAX RAS3 ELECTRONS:         0
  NR OF CONFIG:              48

   Specific data for JOBIPH file JOBIPH05
   -------------------------------------

   Header from SEWARD:
                            O2, D2h symmetry, aug-cc-pVTZ                      
        Integrals generated by Gateway/Seward, Wed Apr 16 15:48:18 2025        

   CASSCF title (first line only):
       O2, 5B3u 1S                                                             

  STATE IRREP:                2
  SPIN MULTIPLICITY:          5
  ACTIVE ELECTRONS:          12
  MAX RAS1 HOLES:             0
  MAX RAS3 ELECTRONS:         0
  NR OF CONFIG:               8

   Specific data for JOBIPH file JOBIPH06
   -------------------------------------

   Header from SEWARD:
                            O2, D2h symmetry, aug-cc-pVTZ                      
        Integrals generated by Gateway/Seward, Thu Apr 17 11:09:31 2025        

   CASSCF title (first line only):
       O2, 1B2u 5S                                                             

  STATE IRREP:                3
  SPIN MULTIPLICITY:          1
  ACTIVE ELECTRONS:          12
  MAX RAS1 HOLES:             0
  MAX RAS3 ELECTRONS:         0
  NR OF CONFIG:              40

   Specific data for JOBIPH file JOBIPH07
   -------------------------------------

   Header from SEWARD:
                            O2, D2h symmetry, aug-cc-pVTZ                      
        Integrals generated by Gateway/Seward, Wed Apr 16 15:48:18 2025        

   CASSCF title (first line only):
       O2, 3B2u 6S                                                             

  STATE IRREP:                3
  SPIN MULTIPLICITY:          3
  ACTIVE ELECTRONS:          12
  MAX RAS1 HOLES:             0
  MAX RAS3 ELECTRONS:         0
  NR OF CONFIG:              48

   Specific data for JOBIPH file JOBIPH08
   -------------------------------------

   Header from SEWARD:
                            O2, D2h symmetry, aug-cc-pVTZ                      
        Integrals generated by Gateway/Seward, Wed Apr 16 15:48:18 2025        

   CASSCF title (first line only):
       O2, 5B2u 1S                                                             

  STATE IRREP:                3
  SPIN MULTIPLICITY:          5
  ACTIVE ELECTRONS:          12
  MAX RAS1 HOLES:             0
  MAX RAS3 ELECTRONS:         0
  NR OF CONFIG:               8

   Specific data for JOBIPH file JOBIPH09
   -------------------------------------

   Header from SEWARD:
                            O2, D2h symmetry, aug-cc-pVTZ                      
        Integrals generated by Gateway/Seward, Wed Apr 16 15:48:18 2025        

   CASSCF title (first line only):
       O2, 1B1g 5S                                                             

  STATE IRREP:                4
  SPIN MULTIPLICITY:          1
  ACTIVE ELECTRONS:          12
  MAX RAS1 HOLES:             0
  MAX RAS3 ELECTRONS:         0
  NR OF CONFIG:              36

   Specific data for JOBIPH file JOBIPH10
   -------------------------------------

   Header from SEWARD:
                            O2, D2h symmetry, aug-cc-pVTZ                      
        Integrals generated by Gateway/Seward, Wed Apr 16 15:48:18 2025        

   CASSCF title (first line only):
       O2, 3B1g 6S                                                             

  STATE IRREP:                4
  SPIN MULTIPLICITY:          3
  ACTIVE ELECTRONS:          12
  MAX RAS1 HOLES:             0
  MAX RAS3 ELECTRONS:         0
  NR OF CONFIG:              48

   Specific data for JOBIPH file JOBIPH11
   -------------------------------------

   Header from SEWARD:
                            O2, D2h symmetry, aug-cc-pVTZ                      
        Integrals generated by Gateway/Seward, Wed Apr 16 15:48:18 2025        

   CASSCF title (first line only):
       O2, 5B1g 1S                                                             

  STATE IRREP:                4
  SPIN MULTIPLICITY:          5
  ACTIVE ELECTRONS:          12
  MAX RAS1 HOLES:             0
  MAX RAS3 ELECTRONS:         0
  NR OF CONFIG:              12

   Specific data for JOBIPH file JOBIPH12
   -------------------------------------

   Header from SEWARD:
                            O2, D2h symmetry, aug-cc-pVTZ                      
        Integrals generated by Gateway/Seward, Thu Apr 17 11:09:31 2025        

   CASSCF title (first line only):
       O2, 1B1u 3S                                                             

  STATE IRREP:                5
  SPIN MULTIPLICITY:          1
  ACTIVE ELECTRONS:          12
  MAX RAS1 HOLES:             0
  MAX RAS3 ELECTRONS:         0
  NR OF CONFIG:              44

   Specific data for JOBIPH file JOBIPH13
   -------------------------------------

   Header from SEWARD:
                            O2, D2h symmetry, aug-cc-pVTZ                      
        Integrals generated by Gateway/Seward, Wed Apr 16 15:48:18 2025        

   CASSCF title (first line only):
       O2, 3B1u 6S                                                             

  STATE IRREP:                5
  SPIN MULTIPLICITY:          3
  ACTIVE ELECTRONS:          12
  MAX RAS1 HOLES:             0
  MAX RAS3 ELECTRONS:         0
  NR OF CONFIG:              48

   Specific data for JOBIPH file JOBIPH14
   -------------------------------------

   Header from SEWARD:
                            O2, D2h symmetry, aug-cc-pVTZ                      
        Integrals generated by Gateway/Seward, Wed Apr 16 15:48:18 2025        

   CASSCF title (first line only):
       O2, 1B2g 5S                                                             

  STATE IRREP:                6
  SPIN MULTIPLICITY:          1
  ACTIVE ELECTRONS:          12
  MAX RAS1 HOLES:             0
  MAX RAS3 ELECTRONS:         0
  NR OF CONFIG:              40

   Specific data for JOBIPH file JOBIPH15
   -------------------------------------

   Header from SEWARD:
                            O2, D2h symmetry, aug-cc-pVTZ                      
        Integrals generated by Gateway/Seward, Wed Apr 16 15:48:18 2025        

   CASSCF title (first line only):
       O2, 3B2g 6S                                                             

  STATE IRREP:                6
  SPIN MULTIPLICITY:          3
  ACTIVE ELECTRONS:          12
  MAX RAS1 HOLES:             0
  MAX RAS3 ELECTRONS:         0
  NR OF CONFIG:              48

   Specific data for JOBIPH file JOBIPH16
   -------------------------------------

   Header from SEWARD:
                            O2, D2h symmetry, aug-cc-pVTZ                      
        Integrals generated by Gateway/Seward, Wed Apr 16 15:48:18 2025        

   CASSCF title (first line only):
       O2, 5B2g 1S                                                             

  STATE IRREP:                6
  SPIN MULTIPLICITY:          5
  ACTIVE ELECTRONS:          12
  MAX RAS1 HOLES:             0
  MAX RAS3 ELECTRONS:         0
  NR OF CONFIG:               8

   Specific data for JOBIPH file JOBIPH17
   -------------------------------------

   Header from SEWARD:
                            O2, D2h symmetry, aug-cc-pVTZ                      
        Integrals generated by Gateway/Seward, Wed Apr 16 15:48:18 2025        

   CASSCF title (first line only):
       O2, 1B3g 5S                                                             

  STATE IRREP:                7
  SPIN MULTIPLICITY:          1
  ACTIVE ELECTRONS:          12
  MAX RAS1 HOLES:             0
  MAX RAS3 ELECTRONS:         0
  NR OF CONFIG:              40

   Specific data for JOBIPH file JOBIPH18
   -------------------------------------

   Header from SEWARD:
                            O2, D2h symmetry, aug-cc-pVTZ                      
        Integrals generated by Gateway/Seward, Wed Apr 16 15:48:18 2025        

   CASSCF title (first line only):
       O2, 3B3g 6S                                                             

  STATE IRREP:                7
  SPIN MULTIPLICITY:          3
  ACTIVE ELECTRONS:          12
  MAX RAS1 HOLES:             0
  MAX RAS3 ELECTRONS:         0
  NR OF CONFIG:              48

   Specific data for JOBIPH file JOBIPH19
   -------------------------------------

   Header from SEWARD:
                            O2, D2h symmetry, aug-cc-pVTZ                      
        Integrals generated by Gateway/Seward, Wed Apr 16 15:48:18 2025        

   CASSCF title (first line only):
       O2, 5B3g 1S                                                             

  STATE IRREP:                7
  SPIN MULTIPLICITY:          5
  ACTIVE ELECTRONS:          12
  MAX RAS1 HOLES:             0
  MAX RAS3 ELECTRONS:         0
  NR OF CONFIG:               8

   Specific data for JOBIPH file JOBIPH20
   -------------------------------------

   Header from SEWARD:
                            O2, D2h symmetry, aug-cc-pVTZ                      
        Integrals generated by Gateway/Seward, Thu Apr 17 11:09:31 2025        

   CASSCF title (first line only):
       O2, 1Au 5S                                                              

  STATE IRREP:                8
  SPIN MULTIPLICITY:          1
  ACTIVE ELECTRONS:          12
  MAX RAS1 HOLES:             0
  MAX RAS3 ELECTRONS:         0
  NR OF CONFIG:              36

   Specific data for JOBIPH file JOBIPH21
   -------------------------------------

   Header from SEWARD:
                            O2, D2h symmetry, aug-cc-pVTZ                      
        Integrals generated by Gateway/Seward, Wed Apr 16 15:48:18 2025        

   CASSCF title (first line only):
       O2, 3Au 6S                                                              

  STATE IRREP:                8
  SPIN MULTIPLICITY:          3
  ACTIVE ELECTRONS:          12
  MAX RAS1 HOLES:             0
  MAX RAS3 ELECTRONS:         0
  NR OF CONFIG:              48

   Specific data for JOBIPH file JOBIPH22
   -------------------------------------

   Header from SEWARD:
                            O2, D2h symmetry, aug-cc-pVTZ                      
        Integrals generated by Gateway/Seward, Wed Apr 16 15:48:18 2025        

   CASSCF title (first line only):
       O2, 5Au 1S                                                              

  STATE IRREP:                8
  SPIN MULTIPLICITY:          5
  ACTIVE ELECTRONS:          12
  MAX RAS1 HOLES:             0
  MAX RAS3 ELECTRONS:         0
  NR OF CONFIG:              12
 ###############################################################################
 ###############################################################################
 ###                                                                         ###
 ###                                                                         ###
 ###    WARNING: EJOB used when HEFF is available, possible                  ###
 ###    extra interaction between states is ignored!                         ###
 ###                                                                         ###
 ###                                                                         ###
 ###############################################################################
 ###############################################################################

   The following data are common to all the states:
   ------------------------------------------------
   (note: frozen counts as inactive, deleted as secondary)

      Nr of irreps: 8

                 Total     No./Irrep 
      Irrep                  1   2   3   4   5   6   7   8
                            ag b3u b2u b1g b1u b2g b3g  au

      INACTIVE       2       1   0   0   0   1   0   0   0
      ACTIVE         8       2   1   1   0   2   1   1   0
      SECONDARY     82      16  10  10   5  16  10  10   5
      BASIS         92      19  11  11   5  19  11  11   5

      RAS1           0       0   0   0   0   0   0   0   0
      RAS2           8       2   1   1   0   2   1   1   0
      RAS3           0       0   0   0   0   0   0   0   0

        MATRIX ELEMENTS WILL BE COMPUTED FOR THE FOLLOWING ONE-ELECTRON OPERATORS, UNLESS ZERO BY SYMMETRY.
   (Herm=Hermitian, Anti=Antihermitian, Sing=Singlet operator, Trip=Triplet operator)
     MLTPL  0   1 (HERMSING)     MLTPL  1   1 (HERMSING)     MLTPL  1   2 (HERMSING)
     MLTPL  1   3 (HERMSING)     MLTPL  2   1 (HERMSING)     MLTPL  2   2 (HERMSING)
     MLTPL  2   3 (HERMSING)     MLTPL  2   4 (HERMSING)     MLTPL  2   5 (HERMSING)
     MLTPL  2   6 (HERMSING)     VELOCITY   1 (ANTISING)     VELOCITY   2 (ANTISING)
     VELOCITY   3 (ANTISING)     ANGMOM     1 (ANTISING)     ANGMOM     2 (ANTISING)
     ANGMOM     3 (ANTISING)     MLTPV  2   1 (ANTISING)     MLTPV  2   2 (ANTISING)
     MLTPV  2   3 (ANTISING)     MLTPV  2   4 (ANTISING)     MLTPV  2   5 (ANTISING)
     MLTPV  2   6 (ANTISING)

       EIGENSTATES OF A SPIN-FREE HAMILTONIAN WILL BE COMPUTED BASED ON:

  a Hamiltonian matrix assumed to be diagonal with energies read from the wavefunction file(s).

  Nr of states:                   99

   State:        1   2   3   4   5   6   7   8   9  10  11  12  13  14  15  16  17  18  19  20
  JobIph:        1   1   1   1   1   1   1   1   1   1   1   1   2   2   2   3   3   3   4   4
 Root nr:        1   2   3   4   5   6   7   8   9  10  11  12   1   2   3   1   2   3   1   2

   State:       21  22  23  24  25  26  27  28  29  30  31  32  33  34  35  36  37  38  39  40
  JobIph:        4   4   4   5   5   5   5   5   5   6   7   7   7   7   7   8   8   8   8   8
 Root nr:        3   4   5   1   2   3   4   5   6   1   1   2   3   4   5   1   2   3   4   5

   State:       41  42  43  44  45  46  47  48  49  50  51  52  53  54  55  56  57  58  59  60
  JobIph:        8   9  10  10  10  10  10  11  11  11  11  11  11  12  13  13  13  14  14  14
 Root nr:        6   1   1   2   3   4   5   1   2   3   4   5   6   1   1   2   3   1   2   3

   State:       61  62  63  64  65  66  67  68  69  70  71  72  73  74  75  76  77  78  79  80
  JobIph:       14  14  14  15  15  15  15  15  16  16  16  16  16  16  17  18  18  18  18  18
 Root nr:        4   5   6   1   2   3   4   5   1   2   3   4   5   6   1   1   2   3   4   5

   State:       81  82  83  84  85  86  87  88  89  90  91  92  93  94  95  96  97  98  99
  JobIph:       19  19  19  19  19  19  20  21  21  21  21  21  22  22  22  22  22  22  23
 Root nr:        1   2   3   4   5   6   1   1   2   3   4   5   1   2   3   4   5   6   1

  HAMILTONIAN MATRIX FOR THE ORIGINAL STATES:

  Diagonal, with energies
   -149.60894937   -149.60894157   -149.59711131   -149.44749767   -149.44644361
   -149.44643568   -149.44286235   -149.43810839   -149.43810808   -149.37882974
   -149.37416919   -149.31022773   -149.52769644   -149.52768854   -149.51760977
   -149.60894935   -149.60894154   -149.59711131   -149.60304838   -149.44696949
   -149.44230905   -149.44227895   -149.37830363   -149.60307827   -149.52822871
   -149.52356219   -149.52356170   -149.52181018   -149.45959369   -149.60304839
   -149.60304838   -149.44696949   -149.44230905   -149.44227895   -149.37830363
   -149.60307827   -149.52822871   -149.52356219   -149.52356170   -149.52181018
   -149.45959369   -149.60304839   -149.60894937   -149.44644361   -149.44286235
   -149.43810808   -149.37416919   -149.60895749   -149.52770457   -149.52769644
   -149.52236875   -149.51760977   -149.45368155   -149.60894935   -149.44287210
   -149.37893678   -149.37419088   -149.60894937   -149.60894156   -149.59711131
   -149.52769647   -149.52768857   -149.51760977   -149.60307826   -149.44698202
   -149.44233871   -149.44230896   -149.37837790   -149.60304838   -149.52822871
   -149.52356219   -149.52356171   -149.52181019   -149.45959370   -149.60307830
   -149.60307826   -149.44698202   -149.44233871   -149.44230896   -149.37837790
   -149.60304838   -149.52822871   -149.52356219   -149.52356171   -149.52181019
   -149.45959370   -149.60307830   -149.60895750   -149.44645166   -149.44287210
   -149.43810839   -149.37419088   -149.60894937   -149.52770454   -149.52769647
   -149.52236875   -149.51760977   -149.45368155   -149.60895748

      OVERLAP MATRIX FOR THE ORIGINAL STATES:

  Diagonal, with elements
      1.00000000      1.00000000      1.00000000      1.00000000      1.00000000
      1.00000000      1.00000000      1.00000000      1.00000000      1.00000000
      1.00000000      1.00000000      1.00000000      1.00000000      1.00000000
      1.00000000      1.00000000      1.00000000      1.00000000      1.00000000
      1.00000000      1.00000000      1.00000000      1.00000000      1.00000000
      1.00000000      1.00000000      1.00000000      1.00000000      1.00000000
      1.00000000      1.00000000      1.00000000      1.00000000      1.00000000
      1.00000000      1.00000000      1.00000000      1.00000000      1.00000000
      1.00000000      1.00000000      1.00000000      1.00000000      1.00000000
      1.00000000      1.00000000      1.00000000      1.00000000      1.00000000
      1.00000000      1.00000000      1.00000000      1.00000000      1.00000000
      1.00000000      1.00000000      1.00000000      1.00000000      1.00000000
      1.00000000      1.00000000      1.00000000      1.00000000      1.00000000
      1.00000000      1.00000000      1.00000000      1.00000000      1.00000000
      1.00000000      1.00000000      1.00000000      1.00000000      1.00000000
      1.00000000      1.00000000      1.00000000      1.00000000      1.00000000
      1.00000000      1.00000000      1.00000000      1.00000000      1.00000000
      1.00000000      1.00000000      1.00000000      1.00000000      1.00000000
      1.00000000      1.00000000      1.00000000      1.00000000      1.00000000
      1.00000000      1.00000000      1.00000000      1.00000000

::    RASSI State    1     Total energy:    -149.60894937289564
::    RASSI State    2     Total energy:    -149.60894156635567
::    RASSI State    3     Total energy:    -149.59711130820298
::    RASSI State    4     Total energy:    -149.44749766673291
::    RASSI State    5     Total energy:    -149.44644361132791
::    RASSI State    6     Total energy:    -149.44643568105585
::    RASSI State    7     Total energy:    -149.44286234940023
::    RASSI State    8     Total energy:    -149.43810839056667
::    RASSI State    9     Total energy:    -149.43810807538117
::    RASSI State   10     Total energy:    -149.37882974447510
::    RASSI State   11     Total energy:    -149.37416918661339
::    RASSI State   12     Total energy:    -149.31022772932852
::    RASSI State   13     Total energy:    -149.52769643855962
::    RASSI State   14     Total energy:    -149.52768853662141
::    RASSI State   15     Total energy:    -149.51760976553788
::    RASSI State   16     Total energy:    -149.60894935045761
::    RASSI State   17     Total energy:    -149.60894154458629
::    RASSI State   18     Total energy:    -149.59711130755846
::    RASSI State   19     Total energy:    -149.60304838014795
::    RASSI State   20     Total energy:    -149.44696949394876
::    RASSI State   21     Total energy:    -149.44230905275020
::    RASSI State   22     Total energy:    -149.44227894824081
::    RASSI State   23     Total energy:    -149.37830362571023
::    RASSI State   24     Total energy:    -149.60307827401127
::    RASSI State   25     Total energy:    -149.52822870518230
::    RASSI State   26     Total energy:    -149.52356219290758
::    RASSI State   27     Total energy:    -149.52356169547349
::    RASSI State   28     Total energy:    -149.52181018376646
::    RASSI State   29     Total energy:    -149.45959369199534
::    RASSI State   30     Total energy:    -149.60304839122674
::    RASSI State   31     Total energy:    -149.60304838014804
::    RASSI State   32     Total energy:    -149.44696949394881
::    RASSI State   33     Total energy:    -149.44230905275020
::    RASSI State   34     Total energy:    -149.44227894824073
::    RASSI State   35     Total energy:    -149.37830362571017
::    RASSI State   36     Total energy:    -149.60307827401124
::    RASSI State   37     Total energy:    -149.52822870518219
::    RASSI State   38     Total energy:    -149.52356219290769
::    RASSI State   39     Total energy:    -149.52356169547343
::    RASSI State   40     Total energy:    -149.52181018376649
::    RASSI State   41     Total energy:    -149.45959369199534
::    RASSI State   42     Total energy:    -149.60304839122662
::    RASSI State   43     Total energy:    -149.60894937289564
::    RASSI State   44     Total energy:    -149.44644361132805
::    RASSI State   45     Total energy:    -149.44286234940031
::    RASSI State   46     Total energy:    -149.43810807538122
::    RASSI State   47     Total energy:    -149.37416918661350
::    RASSI State   48     Total energy:    -149.60895749480221
::    RASSI State   49     Total energy:    -149.52770457423605
::    RASSI State   50     Total energy:    -149.52769643855950
::    RASSI State   51     Total energy:    -149.52236874524388
::    RASSI State   52     Total energy:    -149.51760976553805
::    RASSI State   53     Total energy:    -149.45368154978127
::    RASSI State   54     Total energy:    -149.60894935045766
::    RASSI State   55     Total energy:    -149.44287210356009
::    RASSI State   56     Total energy:    -149.37893678241119
::    RASSI State   57     Total energy:    -149.37419088492516
::    RASSI State   58     Total energy:    -149.60894936541627
::    RASSI State   59     Total energy:    -149.60894155909932
::    RASSI State   60     Total energy:    -149.59711130798814
::    RASSI State   61     Total energy:    -149.52769647064179
::    RASSI State   62     Total energy:    -149.52768856818872
::    RASSI State   63     Total energy:    -149.51760976669325
::    RASSI State   64     Total energy:    -149.60307826228274
::    RASSI State   65     Total energy:    -149.44698202430735
::    RASSI State   66     Total energy:    -149.44233870700197
::    RASSI State   67     Total energy:    -149.44230896440158
::    RASSI State   68     Total energy:    -149.37837790286224
::    RASSI State   69     Total energy:    -149.60304838384087
::    RASSI State   70     Total energy:    -149.52822871222642
::    RASSI State   71     Total energy:    -149.52356219288930
::    RASSI State   72     Total energy:    -149.52356170674543
::    RASSI State   73     Total energy:    -149.52181018976574
::    RASSI State   74     Total energy:    -149.45959369931242
::    RASSI State   75     Total energy:    -149.60307829746841
::    RASSI State   76     Total energy:    -149.60307826228274
::    RASSI State   77     Total energy:    -149.44698202430740
::    RASSI State   78     Total energy:    -149.44233870700185
::    RASSI State   79     Total energy:    -149.44230896440155
::    RASSI State   80     Total energy:    -149.37837790286230
::    RASSI State   81     Total energy:    -149.60304838384073
::    RASSI State   82     Total energy:    -149.52822871222637
::    RASSI State   83     Total energy:    -149.52356219288936
::    RASSI State   84     Total energy:    -149.52356170674531
::    RASSI State   85     Total energy:    -149.52181018976563
::    RASSI State   86     Total energy:    -149.45959369931234
::    RASSI State   87     Total energy:    -149.60307829746836
::    RASSI State   88     Total energy:    -149.60895750112553
::    RASSI State   89     Total energy:    -149.44645166337284
::    RASSI State   90     Total energy:    -149.44287210356015
::    RASSI State   91     Total energy:    -149.43810839042686
::    RASSI State   92     Total energy:    -149.37419088492518
::    RASSI State   93     Total energy:    -149.60894936541627
::    RASSI State   94     Total energy:    -149.52770454381405
::    RASSI State   95     Total energy:    -149.52769647064179
::    RASSI State   96     Total energy:    -149.52236874588169
::    RASSI State   97     Total energy:    -149.51760976669345
::    RASSI State   98     Total energy:    -149.45368155094630
::    RASSI State   99     Total energy:    -149.60895748215583



      ****************************************************************************************************
      *                                                                                                  *
      *                                         Spin-free section                                        *
      *                                                                                                  *
      *                 Note: index according to input order, order according to energy.                 *
      *                                                                                                  *
      ****************************************************************************************************



  SPIN-FREE ENERGIES:
  (Shifted by EMIN (a.u.) =       -149.6089575011)

 SF State       Relative EMIN(au)   Rel lowest level(eV)    D:o, cm**(-1)      L_eff   Abs_M

    88             0.0000000000        0.0000000000              0.0000         1.0     0.0
    48             0.0000000063        0.0000001721              0.0014         1.0     0.0
    99             0.0000000190        0.0000005162              0.0042         1.0     0.0
    43             0.0000081282        0.0002211804              1.7839         2.0     2.0
     1             0.0000081282        0.0002211804              1.7839         2.0     2.0
    58             0.0000081357        0.0002213839              1.7856         2.0     2.0
    93             0.0000081357        0.0002213839              1.7856         2.0     2.0
    54             0.0000081507        0.0002217910              1.7889         2.0     2.0
    16             0.0000081507        0.0002217910              1.7889         2.0     2.0
     2             0.0000159348        0.0004336072              3.4973         1.0     0.0
    59             0.0000159420        0.0004338046              3.4989         1.0     0.0
    17             0.0000159565        0.0004341996              3.5021         1.0     0.0
    75             0.0058792037        0.1599812815           1290.3361         2.0     1.0
    87             0.0058792037        0.1599812815           1290.3361         2.0     1.0
    24             0.0058792271        0.1599819198           1290.3412         2.0     1.0
    36             0.0058792271        0.1599819198           1290.3412         2.0     1.0
    64             0.0058792388        0.1599822390           1290.3438         2.0     1.0
    76             0.0058792388        0.1599822390           1290.3438         2.0     1.0
    30             0.0059091099        0.1607950718           1296.8997         1.0     1.0
    42             0.0059091099        0.1607950718           1296.8997         1.0     1.0
    69             0.0059091173        0.1607952728           1296.9013         1.0     1.0
    81             0.0059091173        0.1607952728           1296.9013         1.0     1.0
    31             0.0059091210        0.1607953733           1296.9021         1.0     1.0
    19             0.0059091210        0.1607953733           1296.9021         1.0     1.0
     3             0.0118461929        0.3223513312           2599.9388         1.6     0.0
    60             0.0118461931        0.3223513370           2599.9389         1.6     0.0
    18             0.0118461936        0.3223513487           2599.9390         1.6     0.0
    70             0.0807287889        2.1967422559          17717.9212         2.4     1.0
    82             0.0807287889        2.1967422559          17717.9212         2.4     1.0
    25             0.0807287959        2.1967424476          17717.9227         2.4     1.0
    37             0.0807287959        2.1967424476          17717.9227         2.4     1.0
    49             0.0812529269        2.2110047772          17832.9562         2.0     0.0
    94             0.0812529573        2.2110056050          17832.9629         2.0     0.0
    61             0.0812610305        2.2112252872          17834.7347         2.7     2.0
    95             0.0812610305        2.2112252872          17834.7347         2.7     2.0
    13             0.0812610626        2.2112261602          17834.7418         2.7     2.0
    50             0.0812610626        2.2112261602          17834.7418         2.7     2.0
    62             0.0812689329        2.2114403239          17836.4691         2.0     0.0
    14             0.0812689645        2.2114411829          17836.4760         2.0     0.0
    38             0.0853953082        2.3237247155          18742.1038         1.6     1.0
    26             0.0853953082        2.3237247155          18742.1038         1.6     1.0
    83             0.0853953082        2.3237247160          18742.1038         1.6     1.0
    71             0.0853953082        2.3237247160          18742.1038         1.6     1.0
    72             0.0853957944        2.3237379447          18742.2105         3.0     3.0
    84             0.0853957944        2.3237379447          18742.2105         3.0     3.0
    27             0.0853958057        2.3237382514          18742.2130         3.0     3.0
    39             0.0853958057        2.3237382514          18742.2130         3.0     3.0
    96             0.0865887552        2.3562000635          19004.0351         2.4     0.0
    51             0.0865887559        2.3562000809          19004.0353         2.4     0.0
    73             0.0871473114        2.3713991497          19126.6240         2.4     1.0
    85             0.0871473114        2.3713991497          19126.6240         2.4     1.0
    40             0.0871473174        2.3713993130          19126.6254         2.4     1.0
    28             0.0871473174        2.3713993130          19126.6254         2.4     1.0
    97             0.0913477344        2.4856984843          20048.5103         2.4     2.0
    63             0.0913477344        2.4856984843          20048.5103         2.4     2.0
    52             0.0913477356        2.4856985158          20048.5106         2.4     2.0
    15             0.0913477356        2.4856985158          20048.5106         2.4     2.0
    74             0.1493638018        4.0643961023          32781.5653         1.0     1.0
    86             0.1493638018        4.0643961023          32781.5653         1.0     1.0
    41             0.1493638091        4.0643963014          32781.5669         1.0     1.0
    29             0.1493638091        4.0643963014          32781.5669         1.0     1.0
    98             0.1552759502        4.2252738550          34079.1319         1.0     0.0
    53             0.1552759513        4.2252738867          34079.1322         1.0     0.0
     4             0.1614598344        4.3935459169          35436.3376         3.0     0.0
    77             0.1619754768        4.4075772621          35549.5081         3.8     1.0
    65             0.1619754768        4.4075772621          35549.5081         3.8     1.0
    32             0.1619880072        4.4079182305          35552.2582         2.0     1.0
    20             0.1619880072        4.4079182305          35552.2582         2.0     1.0
    89             0.1625058378        4.4220091183          35665.9088         2.7     0.0
    44             0.1625138898        4.4222282256          35667.6761         3.3     2.0
     5             0.1625138898        4.4222282256          35667.6761         3.3     2.0
     6             0.1625218201        4.4224440193          35669.4165         2.7     0.0
    90             0.1660853976        4.5194139030          36451.5314         3.0     2.0
    55             0.1660853976        4.5194139030          36451.5314         3.0     2.0
    45             0.1660951517        4.5196793272          36453.6722         3.0     2.0
     7             0.1660951517        4.5196793272          36453.6722         3.0     2.0
    66             0.1666187941        4.5339283627          36568.5984         4.0     3.0
    78             0.1666187941        4.5339283627          36568.5984         4.0     3.0
    21             0.1666484484        4.5347352960          36575.1068         2.4     1.0
    33             0.1666484484        4.5347352960          36575.1068         2.4     1.0
    67             0.1666485367        4.5347377001          36575.1262         2.4     1.0
    79             0.1666485367        4.5347377001          36575.1262         2.4     1.0
    22             0.1666785529        4.5355544815          36581.7140         3.0     3.0
    34             0.1666785529        4.5355544815          36581.7140         3.0     3.0
     8             0.1708491106        4.6490411372          37497.0456         1.6     0.0
    91             0.1708491107        4.6490411410          37497.0456         1.6     0.0
    46             0.1708494257        4.6490497138          37497.1147         4.0     4.0
     9             0.1708494257        4.6490497138          37497.1147         4.0     4.0
    56             0.2300207187        6.2591826215          50483.7124         2.0     0.0
    10             0.2301277567        6.2620952721          50507.2046         2.0     0.0
    80             0.2305795983        6.2743905088          50606.3723         2.0     1.0
    68             0.2305795983        6.2743905088          50606.3723         2.0     1.0
    23             0.2306538754        6.2764116931          50622.6743         2.0     1.0
    35             0.2306538754        6.2764116931          50622.6743         2.0     1.0
    92             0.2347666162        6.3883250711          51525.3165         2.0     2.0
    57             0.2347666162        6.3883250711          51525.3165         2.0     2.0
    47             0.2347883145        6.3889155122          51530.0788         2.0     2.0
    11             0.2347883145        6.3889155122          51530.0788         2.0     2.0
    12             0.2987297718        8.1288512035          65563.6065         0.0     0.0

++ Dipole transition strengths (spin-free states):
   -----------------------------------------------
     for osc. strength at least  1.00000000E-05

  ( Max oscillator strength is only    1.1719684751742729E-008 )
--

++ Velocity transition strengths (spin-free states):
   -------------------------------------------------
     for osc. strength at least  1.00000000E-05

      From   To        Osc. strength     Einstein coefficients Ax, Ay, Az (sec-1)    Total A (sec-1)
     -----------------------------------------------------------------------------------------------
        75   30       1.42386170E-04  0.00000000E+00  0.00000000E+00  4.09168667E-03  4.09168667E-03
        87   42       1.42386170E-04  0.00000000E+00  0.00000000E+00  4.09168667E-03  4.09168667E-03
        24   69       1.42453175E-04  0.00000000E+00  0.00000000E+00  4.08921363E-03  4.08921363E-03
        36   81       1.42453175E-04  0.00000000E+00  0.00000000E+00  4.08921364E-03  4.08921364E-03
        64   19       1.42486705E-04  0.00000000E+00  0.00000000E+00  4.08797723E-03  4.08797723E-03
        76   31       1.42486705E-04  0.00000000E+00  0.00000000E+00  4.08797721E-03  4.08797721E-03
        96   73       2.53693669E-05  0.00000000E+00  2.54304553E-01  0.00000000E+00  2.54304553E-01
        96   85       2.53693669E-05  2.54304553E-01  0.00000000E+00  0.00000000E+00  2.54304553E-01
        51   40       2.53679346E-05  2.54295077E-01  0.00000000E+00  0.00000000E+00  2.54295077E-01
        51   28       2.53679346E-05  0.00000000E+00  2.54295077E-01  0.00000000E+00  2.54295077E-01
        77   32       2.24110461E-04  0.00000000E+00  0.00000000E+00  1.13057665E-03  1.13057665E-03
        65   20       2.24110461E-04  0.00000000E+00  0.00000000E+00  1.13057665E-03  1.13057665E-03
        90   67       2.00027706E-05  0.00000000E+00  2.03813287E-01  0.00000000E+00  2.03813287E-01
        90   79       2.00027706E-05  2.03813287E-01  0.00000000E+00  0.00000000E+00  2.03813287E-01
        55   67       2.00027706E-05  2.03813287E-01  0.00000000E+00  0.00000000E+00  2.03813287E-01
        55   79       2.00027706E-05  0.00000000E+00  2.03813287E-01  0.00000000E+00  2.03813287E-01
        45   21       2.03208968E-05  0.00000000E+00  1.99880228E-01  0.00000000E+00  1.99880228E-01
        45   33       2.03208968E-05  1.99880228E-01  0.00000000E+00  0.00000000E+00  1.99880228E-01
         7   21       2.03208968E-05  1.99880228E-01  0.00000000E+00  0.00000000E+00  1.99880228E-01
         7   33       2.03208968E-05  0.00000000E+00  1.99880228E-01  0.00000000E+00  1.99880228E-01
        66   22       1.52301165E-04  0.00000000E+00  0.00000000E+00  1.74750039E-02  1.74750039E-02
        78   34       1.52301165E-04  0.00000000E+00  0.00000000E+00  1.74750039E-02  1.74750039E-02
        56   10       8.22491038E-05  0.00000000E+00  0.00000000E+00  3.02773255E-02  3.02773255E-02
        10   23       2.10572626E-05  1.87275248E-01  0.00000000E+00  0.00000000E+00  1.87275248E-01
        10   35       2.10572626E-05  0.00000000E+00  1.87275248E-01  0.00000000E+00  1.87275248E-01
        80   35       2.61336763E-05  0.00000000E+00  0.00000000E+00  4.63256881E-03  4.63256881E-03
        68   23       2.61336764E-05  0.00000000E+00  0.00000000E+00  4.63256880E-03  4.63256880E-03
     -----------------------------------------------------------------------------------------------
--

++ Length and velocity gauge comparison (spin-free states):
   --------------------------------------------------------

 --------------------------------------------------
 A comparison between the dipole oscillator strengths in 
 length and velocity gauge will be performed

     All dipole oscillator differences above the tolerance of   1.00000000E-01  will be printed 

 Due to basis set deficiency these oscillator may be problematic 

 The tolerance is defined as ABS(1-O_l/O_v) 
 O_l : dipole oscillator strength in length gauge
 O_p : dipole oscillator strength in velocity gauge
 --------------------------------------------------

  Problematic transitions have been found

      From   To       Difference (%) Osc. st. (len.) Osc. st. (vel.)
     ---------------------------------------------------------------
        75   30      --------------- below threshold  1.42386170E-04
        87   42      --------------- below threshold  1.42386170E-04
        24   69      --------------- below threshold  1.42453175E-04
        36   81      --------------- below threshold  1.42453175E-04
        64   19      --------------- below threshold  1.42486705E-04
        76   31      --------------- below threshold  1.42486705E-04
        96   73      --------------- below threshold  2.53693669E-05
        96   85      --------------- below threshold  2.53693669E-05
        51   40      --------------- below threshold  2.53679346E-05
        51   28      --------------- below threshold  2.53679346E-05
        77   32      --------------- below threshold  2.24110461E-04
        65   20      --------------- below threshold  2.24110461E-04
        90   67      --------------- below threshold  2.00027706E-05
        90   79      --------------- below threshold  2.00027706E-05
        55   67      --------------- below threshold  2.00027706E-05
        55   79      --------------- below threshold  2.00027706E-05
        45   21      --------------- below threshold  2.03208968E-05
        45   33      --------------- below threshold  2.03208968E-05
         7   21      --------------- below threshold  2.03208968E-05
         7   33      --------------- below threshold  2.03208968E-05
        66   22      --------------- below threshold  1.52301165E-04
        78   34      --------------- below threshold  1.52301165E-04
        56   10      --------------- below threshold  8.22491038E-05
        10   23      --------------- below threshold  2.10572626E-05
        10   35      --------------- below threshold  2.10572626E-05
        80   35      --------------- below threshold  2.61336763E-05
        68   23      --------------- below threshold  2.61336764E-05
     ---------------------------------------------------------------

 Number of problematic transitions =                    27

--

 Electric-dipole - electric-octupole not included
 Electric-dipole - magnetic-quadrupole not included


      ****************************************************************************************************
      *                                                                                                  *
      *                                    Special properties section                                    *
      *                                                                                                  *
      ****************************************************************************************************


++ I/O STATISTICS
 
  I. General I/O information
  - - - - - - - - - - - - - - - - - - - - - - - - - - - - - - - - - - - - - - - - - - -
  Unit  Name          Flsize      Write/Read            MBytes           Write/Read
                      (MBytes)       Calls              In/Out           Time, sec.
  - - - - - - - - - - - - - - - - - - - - - - - - - - - - - - - - - - - - - - - - - - -
   1  RUNFILE           0.99 .     266/  263081 .      2.5/   1903.2 .       0/       0
   2  ANNI              0.00 .       0/       0 .      0.0/      0.0 .       0/       0
   3  ONEINT            1.54 .       0/  126040 .      0.0/ 152831.4 .       0/      19
   4  JOBIPH            1.52 .       0/     651 .      0.0/      1.5 .       0/       0
   5  JOBIPH01          1.22 .       0/     219 .      0.0/      1.3 .       0/       0
   6  JOBIPH02          1.22 .       0/     219 .      0.0/      1.3 .       0/       0
   7  JOBIPH03          1.28 .       0/     315 .      0.0/      1.4 .       0/       0
   8  JOBIPH04          1.32 .       0/     363 .      0.0/      1.4 .       0/       0
   9  JOBIPH05          1.15 .       0/     123 .      0.0/      1.3 .       0/       0
  10  JOBIPH06          1.28 .       0/     315 .      0.0/      1.4 .       0/       0
  11  JOBIPH07          1.32 .       0/     363 .      0.0/      1.4 .       0/       0
  12  JOBIPH08          1.15 .       0/     123 .      0.0/      1.3 .       0/       0
  13  JOBIPH09          1.28 .       0/     315 .      0.0/      1.4 .       0/       0
  14  JOBIPH10          1.32 .       0/     363 .      0.0/      1.4 .       0/       0
  15  JOBIPH11          1.15 .       0/     123 .      0.0/      1.3 .       0/       0
  16  JOBIPH12          1.22 .       0/     219 .      0.0/      1.3 .       0/       0
  17  JOBIPH13          1.32 .       0/     363 .      0.0/      1.4 .       0/       0
  18  JOBIPH14          1.28 .       0/     315 .      0.0/      1.4 .       0/       0
  19  JOBIPH15          1.32 .       0/     363 .      0.0/      1.4 .       0/       0
  20  JOBIPH16          1.15 .       0/     123 .      0.0/      1.3 .       0/       0
  21  JOBIPH17          1.28 .       0/     315 .      0.0/      1.4 .       0/       0
  22  JOBIPH18          1.32 .       0/     363 .      0.0/      1.4 .       0/       0
  23  JOBIPH19          1.15 .       0/     123 .      0.0/      1.3 .       0/       0
  24  JOBIPH20          1.28 .       0/     315 .      0.0/      1.4 .       0/       0
  25  JOBIPH21          1.32 .       0/     363 .      0.0/      1.4 .       0/       0
  26  JOBIPH22          1.15 .       0/     123 .      0.0/      1.3 .       0/       0
  - - - - - - - - - - - - - - - - - - - - - - - - - - - - - - - - - - - - - - - - - - -
   *  TOTAL            31.50 .     266/  395598 .      2.5/ 154765.6 .       0/      19
  - - - - - - - - - - - - - - - - - - - - - - - - - - - - - - - - - - - - - - - - - - -
 
  II. I/O Access Patterns
  - - - - - - - - - - - - - - - - - - - -
  Unit  Name               % of random
                         Write/Read calls
  - - - - - - - - - - - - - - - - - - - -
   1  RUNFILE             28.6/  11.1
   2  ANNI                 0.0/   0.0
   3  ONEINT               0.0/  99.3
   4  JOBIPH               0.0/  51.9
   5  JOBIPH01             0.0/  55.7
   6  JOBIPH02             0.0/  55.7
   7  JOBIPH03             0.0/  54.0
   8  JOBIPH04             0.0/  53.4
   9  JOBIPH05             0.0/  60.2
  10  JOBIPH06             0.0/  54.0
  11  JOBIPH07             0.0/  53.4
  12  JOBIPH08             0.0/  60.2
  13  JOBIPH09             0.0/  54.0
  14  JOBIPH10             0.0/  53.4
  15  JOBIPH11             0.0/  60.2
  16  JOBIPH12             0.0/  55.7
  17  JOBIPH13             0.0/  53.4
  18  JOBIPH14             0.0/  54.0
  19  JOBIPH15             0.0/  53.4
  20  JOBIPH16             0.0/  60.2
  21  JOBIPH17             0.0/  54.0
  22  JOBIPH18             0.0/  53.4
  23  JOBIPH19             0.0/  60.2
  24  JOBIPH20             0.0/  54.0
  25  JOBIPH21             0.0/  53.4
  26  JOBIPH22             0.0/  60.2
  - - - - - - - - - - - - - - - - - - - -
--
--- Stop Module: rassi at Thu Apr 17 11:10:22 2025 /rc=_RC_ALL_IS_WELL_ ---
--- Module rassi spent 40 seconds ---

.##################.
.# Happy landing! #.
.##################.

    Timing: Wall=40.85 User=19.88 System=20.58
