   This run of MOLCAS is using the pymolcas driver

                             OPE
                             OPE          NMOL  CASOP  ENMOLC A   SO
                 OPE        NMOLC        AS  OP EN  MO LC     AS  OP
                OPENM       OL CA        SO  PE NM  OL CA     SOP EN
                OP EN      MO   LC       AS  OP ENMOL  CASO   PENMOL
                OP  EN     MO   LC       AS  OP EN     MO     LC ASO
               OP   E  NMOL  C  AS       OP  EN MO     LC     AS  OP
               OP  E   NMO   LC AS        OPEN  MO     LCASOP EN   M
               O  PEN   MO  LCA  SO
            OPE   NMO   L   CAS    OP
        OPENMOL  CASOP     ENMOL   CASOPE
     OPENMOLCA   SOPENMOLCASOPEN   MOLCASOPE
    OPENMOLCAS   OP           EN   MOL    CAS
    OPENMOLCAS       OP  ENM        O     LCA
    OPENMOLCAS    OPEN  MOLCASO     P  E  NMO
    OPENMOLCAS     OP               E  N  MOL
    OPENMOLCA   SO           PENM   O  L  CAS    OPEN    MO    LCAS
    OPENMOLCA   SOP           ENM   O  L  CAS   OP  EN  MOLC  AS   O
    OPENMOLCA   SOPE           NM      O  LCA   S      OP  EN MO
    OPENMOLC                AS         O  PEN   M      OL  CA  SOPE
    OPENMO        LCASOPE  NMOL        C  ASO   P      ENMOLC     AS
    OPE     NMO      LCA  SO     P     E   NM   OL  CA SO  PE N   MO
          OPENMOLCA            SOPE   NMO        LCAS  O    P  ENMO
     OPENMOLCASOPENMOLCASOPENMOLCASOPENMOLCA
        OPENMOLCASOPENMOLCASOPENMOLCASOPE
            OPENMOLCASOPENMOLCASOPENM
               OPENMOLCASOPENMOLCA        version: 25.02
                   OPENMOLCASO
                       OPE                tag: 92-gf4b470f0a

 OpenMolcas is free software; you can redistribute it and/or modify it
 under the terms of the GNU Lesser General Public License version 2.1.
 OpenMolcas is distributed in the hope that it will be useful, but it
 is provided "as is" and without any express or implied warranties.
 For more details see the full text of the license in the file
 LICENSE or in <http://www.gnu.org/licenses/>.

                 Copyright (C) The OpenMolcas Authors
           For the author list and the recommended citation,
                   consult the file CONTRIBUTORS.md

           *************************************************
           * pymolcas version py2.29                       *
           *   build 2ba4516c4d154a59cba941070ba63e2c      *
           *   (after the EMIL interpreter by V. Veryazov) *
           *************************************************

configuration info
------------------
Host name: iftia91.univ.gda.pl (Linux)
C Compiler ID: GNU
C flags: -std=gnu99
Fortran Compiler ID: GNU
Fortran flags: -cpp -fdefault-integer-8 -fmax-stack-var-size=1048576
Definitions: _MOLCAS_;_I8_;_LINUX_
Parallel: OFF (GA=OFF)


   --------------------------------------------------------------------
  |
  |           Project: O2
  |    Submitted from: /scratch/tecumseh/WorkSpace/O2.2.2500
  |      Scratch area: /scratch/tecumseh/WorkSpace/O2.2.2500
  |   Save outputs to: WORKDIR
  |            Molcas: /home/tecumseh/program/OpenMolcas/build
  |
  | Scratch area is NOT empty
  |
  |    MOLCAS_DRIVER = /home/tecumseh/program/OpenMolcas/build/pymolcas
  |    MOLCAS_NPROCS = 1
  |    MOLCAS_SOURCE = /home/tecumseh/program/OpenMolcas/OpenMolcas
  | MOLCAS_STRUCTURE = 0
  |
   --------------------------------------------------------------------

++ ---------   Input file   ---------

>>> COPY $dir/vectors/$Project.$R.1Ag-12S.JobIph $WorkDir/JOBIPH

>>> COPY $dir/vectors/$Project.$R.3Ag-3S.JobIph $WorkDir/JOBIPH01

>>> COPY $dir/vectors/$Project.$R.5Ag-3S.JobIph $WorkDir/JOBIPH02

>>> COPY $dir/vectors/$Project.$R.1B3u-5S.JobIph $WorkDir/JOBIPH03

>>> COPY $dir/vectors/$Project.$R.3B3u-6S.JobIph $WorkDir/JOBIPH04

>>> COPY $dir/vectors/$Project.$R.5B3u-1S.JobIph $WorkDir/JOBIPH05

>>> COPY $dir/vectors/$Project.$R.1B2u-5S.JobIph $WorkDir/JOBIPH06

>>> COPY $dir/vectors/$Project.$R.3B2u-6S.JobIph $WorkDir/JOBIPH07

>>> COPY $dir/vectors/$Project.$R.5B2u-1S.JobIph $WorkDir/JOBIPH08

>>> COPY $dir/vectors/$Project.$R.1B1g-5S.JobIph $WorkDir/JOBIPH09

>>> COPY $dir/vectors/$Project.$R.3B1g-6S.JobIph $WorkDir/JOBIPH10

>>> COPY $dir/vectors/$Project.$R.5B1g-1S.JobIph $WorkDir/JOBIPH11

>>> COPY $dir/vectors/$Project.$R.1B1u-3S.JobIph $WorkDir/JOBIPH12

>>> COPY $dir/vectors/$Project.$R.3B1u-6S.JobIph $WorkDir/JOBIPH13

>>> COPY $dir/vectors/$Project.$R.1B2g-5S.JobIph $WorkDir/JOBIPH14

>>> COPY $dir/vectors/$Project.$R.3B2g-6S.JobIph $WorkDir/JOBIPH15

>>> COPY $dir/vectors/$Project.$R.5B2g-1S.JobIph $WorkDir/JOBIPH16

>>> COPY $dir/vectors/$Project.$R.1B3g-5S.JobIph $WorkDir/JOBIPH17

>>> COPY $dir/vectors/$Project.$R.3B3g-6S.JobIph $WorkDir/JOBIPH18

>>> COPY $dir/vectors/$Project.$R.5B3g-1S.JobIph $WorkDir/JOBIPH19

>>> COPY $dir/vectors/$Project.$R.1Au-5S.JobIph $WorkDir/JOBIPH20

>>> COPY $dir/vectors/$Project.$R.3Au-6S.JobIph $WorkDir/JOBIPH21

>>> COPY $dir/vectors/$Project.$R.5Au-1S.JobIph $WorkDir/JOBIPH22

&RASSI

OMEGa
NROF=23 12 3 3 5 6 1 5 6 1 5 6 1 3 6 5 6 1 5 6 1 5 6 1
1 2 3 4 5 6 7 8 9 10 11 12
1 2 3
1 2 3
1 2 3 4 5
1 2 3 4 5 6
1
1 2 3 4 5
1 2 3 4 5 6
1
1 2 3 4 5
1 2 3 4 5 6
1
1 2 3
1 2 3 4 5 6
1 2 3 4 5
1 2 3 4 5 6
1
1 2 3 4 5
1 2 3 4 5 6
1
1 2 3 4 5
1 2 3 4 5 6
1
EJOB

-- ----------------------------------

>>> COPY /home/tecumseh/project/molecule/O2/OpenMolcas/vectors/O2.2.2500.1Ag-12S.JobIph /scratch/tecumseh/WorkSpace/O2.2.2500/JOBIPH

>>> COPY /home/tecumseh/project/molecule/O2/OpenMolcas/vectors/O2.2.2500.3Ag-3S.JobIph /scratch/tecumseh/WorkSpace/O2.2.2500/JOBIPH01

>>> COPY /home/tecumseh/project/molecule/O2/OpenMolcas/vectors/O2.2.2500.5Ag-3S.JobIph /scratch/tecumseh/WorkSpace/O2.2.2500/JOBIPH02

>>> COPY /home/tecumseh/project/molecule/O2/OpenMolcas/vectors/O2.2.2500.1B3u-5S.JobIph /scratch/tecumseh/WorkSpace/O2.2.2500/JOBIPH03

>>> COPY /home/tecumseh/project/molecule/O2/OpenMolcas/vectors/O2.2.2500.3B3u-6S.JobIph /scratch/tecumseh/WorkSpace/O2.2.2500/JOBIPH04

>>> COPY /home/tecumseh/project/molecule/O2/OpenMolcas/vectors/O2.2.2500.5B3u-1S.JobIph /scratch/tecumseh/WorkSpace/O2.2.2500/JOBIPH05

>>> COPY /home/tecumseh/project/molecule/O2/OpenMolcas/vectors/O2.2.2500.1B2u-5S.JobIph /scratch/tecumseh/WorkSpace/O2.2.2500/JOBIPH06

>>> COPY /home/tecumseh/project/molecule/O2/OpenMolcas/vectors/O2.2.2500.3B2u-6S.JobIph /scratch/tecumseh/WorkSpace/O2.2.2500/JOBIPH07

>>> COPY /home/tecumseh/project/molecule/O2/OpenMolcas/vectors/O2.2.2500.5B2u-1S.JobIph /scratch/tecumseh/WorkSpace/O2.2.2500/JOBIPH08

>>> COPY /home/tecumseh/project/molecule/O2/OpenMolcas/vectors/O2.2.2500.1B1g-5S.JobIph /scratch/tecumseh/WorkSpace/O2.2.2500/JOBIPH09

>>> COPY /home/tecumseh/project/molecule/O2/OpenMolcas/vectors/O2.2.2500.3B1g-6S.JobIph /scratch/tecumseh/WorkSpace/O2.2.2500/JOBIPH10

>>> COPY /home/tecumseh/project/molecule/O2/OpenMolcas/vectors/O2.2.2500.5B1g-1S.JobIph /scratch/tecumseh/WorkSpace/O2.2.2500/JOBIPH11

>>> COPY /home/tecumseh/project/molecule/O2/OpenMolcas/vectors/O2.2.2500.1B1u-3S.JobIph /scratch/tecumseh/WorkSpace/O2.2.2500/JOBIPH12

>>> COPY /home/tecumseh/project/molecule/O2/OpenMolcas/vectors/O2.2.2500.3B1u-6S.JobIph /scratch/tecumseh/WorkSpace/O2.2.2500/JOBIPH13

>>> COPY /home/tecumseh/project/molecule/O2/OpenMolcas/vectors/O2.2.2500.1B2g-5S.JobIph /scratch/tecumseh/WorkSpace/O2.2.2500/JOBIPH14

>>> COPY /home/tecumseh/project/molecule/O2/OpenMolcas/vectors/O2.2.2500.3B2g-6S.JobIph /scratch/tecumseh/WorkSpace/O2.2.2500/JOBIPH15

>>> COPY /home/tecumseh/project/molecule/O2/OpenMolcas/vectors/O2.2.2500.5B2g-1S.JobIph /scratch/tecumseh/WorkSpace/O2.2.2500/JOBIPH16

>>> COPY /home/tecumseh/project/molecule/O2/OpenMolcas/vectors/O2.2.2500.1B3g-5S.JobIph /scratch/tecumseh/WorkSpace/O2.2.2500/JOBIPH17

>>> COPY /home/tecumseh/project/molecule/O2/OpenMolcas/vectors/O2.2.2500.3B3g-6S.JobIph /scratch/tecumseh/WorkSpace/O2.2.2500/JOBIPH18

>>> COPY /home/tecumseh/project/molecule/O2/OpenMolcas/vectors/O2.2.2500.5B3g-1S.JobIph /scratch/tecumseh/WorkSpace/O2.2.2500/JOBIPH19

>>> COPY /home/tecumseh/project/molecule/O2/OpenMolcas/vectors/O2.2.2500.1Au-5S.JobIph /scratch/tecumseh/WorkSpace/O2.2.2500/JOBIPH20

>>> COPY /home/tecumseh/project/molecule/O2/OpenMolcas/vectors/O2.2.2500.3Au-6S.JobIph /scratch/tecumseh/WorkSpace/O2.2.2500/JOBIPH21

>>> COPY /home/tecumseh/project/molecule/O2/OpenMolcas/vectors/O2.2.2500.5Au-1S.JobIph /scratch/tecumseh/WorkSpace/O2.2.2500/JOBIPH22

--- Start Module: rassi at Thu Apr 17 11:07:58 2025 ---

()()()()()()()()()()()()()()()()()()()()()()()()()()()()()()()()()()()()()()()()()()()()()()()()()()

                                               &RASSI

                                   only a single process is used
                       available to each process: 2.0 GB of memory, 1 thread?
                                            pid: 299480
()()()()()()()()()()()()()()()()()()()()()()()()()()()()()()()()()()()()()()()()()()()()()()()()()()


      ********************************************************************************
      *                                                                              *
      *                             General data section                             *
      *                                                                              *
      ********************************************************************************

   Specific data for JOBIPH file JOBIPH
   -------------------------------------

   Header from SEWARD:
                            O2, D2h symmetry, aug-cc-pVTZ                      
        Integrals generated by Gateway/Seward, Wed Apr 16 15:48:11 2025        

   CASSCF title (first line only):
       O2, 1Ag 12S                                                             

  STATE IRREP:                1
  SPIN MULTIPLICITY:          1
  ACTIVE ELECTRONS:          12
  MAX RAS1 HOLES:             0
  MAX RAS3 ELECTRONS:         0
  NR OF CONFIG:              60

   Specific data for JOBIPH file JOBIPH01
   -------------------------------------

   Header from SEWARD:
                            O2, D2h symmetry, aug-cc-pVTZ                      
        Integrals generated by Gateway/Seward, Wed Apr 16 15:48:11 2025        

   CASSCF title (first line only):
       O2, 3Ag  3S                                                             

  STATE IRREP:                1
  SPIN MULTIPLICITY:          3
  ACTIVE ELECTRONS:          12
  MAX RAS1 HOLES:             0
  MAX RAS3 ELECTRONS:         0
  NR OF CONFIG:              42

   Specific data for JOBIPH file JOBIPH02
   -------------------------------------

   Header from SEWARD:
                            O2, D2h symmetry, aug-cc-pVTZ                      
        Integrals generated by Gateway/Seward, Wed Apr 16 15:48:11 2025        

   CASSCF title (first line only):
       O2, 5Ag  3S                                                             

  STATE IRREP:                1
  SPIN MULTIPLICITY:          5
  ACTIVE ELECTRONS:          12
  MAX RAS1 HOLES:             0
  MAX RAS3 ELECTRONS:         0
  NR OF CONFIG:              10

   Specific data for JOBIPH file JOBIPH03
   -------------------------------------

   Header from SEWARD:
                            O2, D2h symmetry, aug-cc-pVTZ                      
        Integrals generated by Gateway/Seward, Thu Apr 17 11:07:49 2025        

   CASSCF title (first line only):
       O2, 1B3u 5S                                                             

  STATE IRREP:                2
  SPIN MULTIPLICITY:          1
  ACTIVE ELECTRONS:          12
  MAX RAS1 HOLES:             0
  MAX RAS3 ELECTRONS:         0
  NR OF CONFIG:              40

   Specific data for JOBIPH file JOBIPH04
   -------------------------------------

   Header from SEWARD:
                            O2, D2h symmetry, aug-cc-pVTZ                      
        Integrals generated by Gateway/Seward, Wed Apr 16 15:48:11 2025        

   CASSCF title (first line only):
       O2, 3B3u 6S                                                             

  STATE IRREP:                2
  SPIN MULTIPLICITY:          3
  ACTIVE ELECTRONS:          12
  MAX RAS1 HOLES:             0
  MAX RAS3 ELECTRONS:         0
  NR OF CONFIG:              48

   Specific data for JOBIPH file JOBIPH05
   -------------------------------------

   Header from SEWARD:
                            O2, D2h symmetry, aug-cc-pVTZ                      
        Integrals generated by Gateway/Seward, Wed Apr 16 15:48:11 2025        

   CASSCF title (first line only):
       O2, 5B3u 1S                                                             

  STATE IRREP:                2
  SPIN MULTIPLICITY:          5
  ACTIVE ELECTRONS:          12
  MAX RAS1 HOLES:             0
  MAX RAS3 ELECTRONS:         0
  NR OF CONFIG:               8

   Specific data for JOBIPH file JOBIPH06
   -------------------------------------

   Header from SEWARD:
                            O2, D2h symmetry, aug-cc-pVTZ                      
        Integrals generated by Gateway/Seward, Thu Apr 17 11:07:49 2025        

   CASSCF title (first line only):
       O2, 1B2u 5S                                                             

  STATE IRREP:                3
  SPIN MULTIPLICITY:          1
  ACTIVE ELECTRONS:          12
  MAX RAS1 HOLES:             0
  MAX RAS3 ELECTRONS:         0
  NR OF CONFIG:              40

   Specific data for JOBIPH file JOBIPH07
   -------------------------------------

   Header from SEWARD:
                            O2, D2h symmetry, aug-cc-pVTZ                      
        Integrals generated by Gateway/Seward, Wed Apr 16 15:48:11 2025        

   CASSCF title (first line only):
       O2, 3B2u 6S                                                             

  STATE IRREP:                3
  SPIN MULTIPLICITY:          3
  ACTIVE ELECTRONS:          12
  MAX RAS1 HOLES:             0
  MAX RAS3 ELECTRONS:         0
  NR OF CONFIG:              48

   Specific data for JOBIPH file JOBIPH08
   -------------------------------------

   Header from SEWARD:
                            O2, D2h symmetry, aug-cc-pVTZ                      
        Integrals generated by Gateway/Seward, Wed Apr 16 15:48:11 2025        

   CASSCF title (first line only):
       O2, 5B2u 1S                                                             

  STATE IRREP:                3
  SPIN MULTIPLICITY:          5
  ACTIVE ELECTRONS:          12
  MAX RAS1 HOLES:             0
  MAX RAS3 ELECTRONS:         0
  NR OF CONFIG:               8

   Specific data for JOBIPH file JOBIPH09
   -------------------------------------

   Header from SEWARD:
                            O2, D2h symmetry, aug-cc-pVTZ                      
        Integrals generated by Gateway/Seward, Wed Apr 16 15:48:11 2025        

   CASSCF title (first line only):
       O2, 1B1g 5S                                                             

  STATE IRREP:                4
  SPIN MULTIPLICITY:          1
  ACTIVE ELECTRONS:          12
  MAX RAS1 HOLES:             0
  MAX RAS3 ELECTRONS:         0
  NR OF CONFIG:              36

   Specific data for JOBIPH file JOBIPH10
   -------------------------------------

   Header from SEWARD:
                            O2, D2h symmetry, aug-cc-pVTZ                      
        Integrals generated by Gateway/Seward, Wed Apr 16 15:48:11 2025        

   CASSCF title (first line only):
       O2, 3B1g 6S                                                             

  STATE IRREP:                4
  SPIN MULTIPLICITY:          3
  ACTIVE ELECTRONS:          12
  MAX RAS1 HOLES:             0
  MAX RAS3 ELECTRONS:         0
  NR OF CONFIG:              48

   Specific data for JOBIPH file JOBIPH11
   -------------------------------------

   Header from SEWARD:
                            O2, D2h symmetry, aug-cc-pVTZ                      
        Integrals generated by Gateway/Seward, Wed Apr 16 15:48:11 2025        

   CASSCF title (first line only):
       O2, 5B1g 1S                                                             

  STATE IRREP:                4
  SPIN MULTIPLICITY:          5
  ACTIVE ELECTRONS:          12
  MAX RAS1 HOLES:             0
  MAX RAS3 ELECTRONS:         0
  NR OF CONFIG:              12

   Specific data for JOBIPH file JOBIPH12
   -------------------------------------

   Header from SEWARD:
                            O2, D2h symmetry, aug-cc-pVTZ                      
        Integrals generated by Gateway/Seward, Thu Apr 17 11:07:49 2025        

   CASSCF title (first line only):
       O2, 1B1u 3S                                                             

  STATE IRREP:                5
  SPIN MULTIPLICITY:          1
  ACTIVE ELECTRONS:          12
  MAX RAS1 HOLES:             0
  MAX RAS3 ELECTRONS:         0
  NR OF CONFIG:              44

   Specific data for JOBIPH file JOBIPH13
   -------------------------------------

   Header from SEWARD:
                            O2, D2h symmetry, aug-cc-pVTZ                      
        Integrals generated by Gateway/Seward, Wed Apr 16 15:48:11 2025        

   CASSCF title (first line only):
       O2, 3B1u 6S                                                             

  STATE IRREP:                5
  SPIN MULTIPLICITY:          3
  ACTIVE ELECTRONS:          12
  MAX RAS1 HOLES:             0
  MAX RAS3 ELECTRONS:         0
  NR OF CONFIG:              48

   Specific data for JOBIPH file JOBIPH14
   -------------------------------------

   Header from SEWARD:
                            O2, D2h symmetry, aug-cc-pVTZ                      
        Integrals generated by Gateway/Seward, Wed Apr 16 15:48:11 2025        

   CASSCF title (first line only):
       O2, 1B2g 5S                                                             

  STATE IRREP:                6
  SPIN MULTIPLICITY:          1
  ACTIVE ELECTRONS:          12
  MAX RAS1 HOLES:             0
  MAX RAS3 ELECTRONS:         0
  NR OF CONFIG:              40

   Specific data for JOBIPH file JOBIPH15
   -------------------------------------

   Header from SEWARD:
                            O2, D2h symmetry, aug-cc-pVTZ                      
        Integrals generated by Gateway/Seward, Wed Apr 16 15:48:11 2025        

   CASSCF title (first line only):
       O2, 3B2g 6S                                                             

  STATE IRREP:                6
  SPIN MULTIPLICITY:          3
  ACTIVE ELECTRONS:          12
  MAX RAS1 HOLES:             0
  MAX RAS3 ELECTRONS:         0
  NR OF CONFIG:              48

   Specific data for JOBIPH file JOBIPH16
   -------------------------------------

   Header from SEWARD:
                            O2, D2h symmetry, aug-cc-pVTZ                      
        Integrals generated by Gateway/Seward, Wed Apr 16 15:48:11 2025        

   CASSCF title (first line only):
       O2, 5B2g 1S                                                             

  STATE IRREP:                6
  SPIN MULTIPLICITY:          5
  ACTIVE ELECTRONS:          12
  MAX RAS1 HOLES:             0
  MAX RAS3 ELECTRONS:         0
  NR OF CONFIG:               8

   Specific data for JOBIPH file JOBIPH17
   -------------------------------------

   Header from SEWARD:
                            O2, D2h symmetry, aug-cc-pVTZ                      
        Integrals generated by Gateway/Seward, Wed Apr 16 15:48:11 2025        

   CASSCF title (first line only):
       O2, 1B3g 5S                                                             

  STATE IRREP:                7
  SPIN MULTIPLICITY:          1
  ACTIVE ELECTRONS:          12
  MAX RAS1 HOLES:             0
  MAX RAS3 ELECTRONS:         0
  NR OF CONFIG:              40

   Specific data for JOBIPH file JOBIPH18
   -------------------------------------

   Header from SEWARD:
                            O2, D2h symmetry, aug-cc-pVTZ                      
        Integrals generated by Gateway/Seward, Wed Apr 16 15:48:11 2025        

   CASSCF title (first line only):
       O2, 3B3g 6S                                                             

  STATE IRREP:                7
  SPIN MULTIPLICITY:          3
  ACTIVE ELECTRONS:          12
  MAX RAS1 HOLES:             0
  MAX RAS3 ELECTRONS:         0
  NR OF CONFIG:              48

   Specific data for JOBIPH file JOBIPH19
   -------------------------------------

   Header from SEWARD:
                            O2, D2h symmetry, aug-cc-pVTZ                      
        Integrals generated by Gateway/Seward, Wed Apr 16 15:48:11 2025        

   CASSCF title (first line only):
       O2, 5B3g 1S                                                             

  STATE IRREP:                7
  SPIN MULTIPLICITY:          5
  ACTIVE ELECTRONS:          12
  MAX RAS1 HOLES:             0
  MAX RAS3 ELECTRONS:         0
  NR OF CONFIG:               8

   Specific data for JOBIPH file JOBIPH20
   -------------------------------------

   Header from SEWARD:
                            O2, D2h symmetry, aug-cc-pVTZ                      
        Integrals generated by Gateway/Seward, Thu Apr 17 11:07:49 2025        

   CASSCF title (first line only):
       O2, 1Au 5S                                                              

  STATE IRREP:                8
  SPIN MULTIPLICITY:          1
  ACTIVE ELECTRONS:          12
  MAX RAS1 HOLES:             0
  MAX RAS3 ELECTRONS:         0
  NR OF CONFIG:              36

   Specific data for JOBIPH file JOBIPH21
   -------------------------------------

   Header from SEWARD:
                            O2, D2h symmetry, aug-cc-pVTZ                      
        Integrals generated by Gateway/Seward, Wed Apr 16 15:48:11 2025        

   CASSCF title (first line only):
       O2, 3Au 6S                                                              

  STATE IRREP:                8
  SPIN MULTIPLICITY:          3
  ACTIVE ELECTRONS:          12
  MAX RAS1 HOLES:             0
  MAX RAS3 ELECTRONS:         0
  NR OF CONFIG:              48

   Specific data for JOBIPH file JOBIPH22
   -------------------------------------

   Header from SEWARD:
                            O2, D2h symmetry, aug-cc-pVTZ                      
        Integrals generated by Gateway/Seward, Wed Apr 16 15:48:11 2025        

   CASSCF title (first line only):
       O2, 5Au 1S                                                              

  STATE IRREP:                8
  SPIN MULTIPLICITY:          5
  ACTIVE ELECTRONS:          12
  MAX RAS1 HOLES:             0
  MAX RAS3 ELECTRONS:         0
  NR OF CONFIG:              12
 ###############################################################################
 ###############################################################################
 ###                                                                         ###
 ###                                                                         ###
 ###    WARNING: EJOB used when HEFF is available, possible                  ###
 ###    extra interaction between states is ignored!                         ###
 ###                                                                         ###
 ###                                                                         ###
 ###############################################################################
 ###############################################################################

   The following data are common to all the states:
   ------------------------------------------------
   (note: frozen counts as inactive, deleted as secondary)

      Nr of irreps: 8

                 Total     No./Irrep 
      Irrep                  1   2   3   4   5   6   7   8
                            ag b3u b2u b1g b1u b2g b3g  au

      INACTIVE       2       1   0   0   0   1   0   0   0
      ACTIVE         8       2   1   1   0   2   1   1   0
      SECONDARY     82      16  10  10   5  16  10  10   5
      BASIS         92      19  11  11   5  19  11  11   5

      RAS1           0       0   0   0   0   0   0   0   0
      RAS2           8       2   1   1   0   2   1   1   0
      RAS3           0       0   0   0   0   0   0   0   0

        MATRIX ELEMENTS WILL BE COMPUTED FOR THE FOLLOWING ONE-ELECTRON OPERATORS, UNLESS ZERO BY SYMMETRY.
   (Herm=Hermitian, Anti=Antihermitian, Sing=Singlet operator, Trip=Triplet operator)
     MLTPL  0   1 (HERMSING)     MLTPL  1   1 (HERMSING)     MLTPL  1   2 (HERMSING)
     MLTPL  1   3 (HERMSING)     MLTPL  2   1 (HERMSING)     MLTPL  2   2 (HERMSING)
     MLTPL  2   3 (HERMSING)     MLTPL  2   4 (HERMSING)     MLTPL  2   5 (HERMSING)
     MLTPL  2   6 (HERMSING)     VELOCITY   1 (ANTISING)     VELOCITY   2 (ANTISING)
     VELOCITY   3 (ANTISING)     ANGMOM     1 (ANTISING)     ANGMOM     2 (ANTISING)
     ANGMOM     3 (ANTISING)     MLTPV  2   1 (ANTISING)     MLTPV  2   2 (ANTISING)
     MLTPV  2   3 (ANTISING)     MLTPV  2   4 (ANTISING)     MLTPV  2   5 (ANTISING)
     MLTPV  2   6 (ANTISING)

       EIGENSTATES OF A SPIN-FREE HAMILTONIAN WILL BE COMPUTED BASED ON:

  a Hamiltonian matrix assumed to be diagonal with energies read from the wavefunction file(s).

  Nr of states:                   99

   State:        1   2   3   4   5   6   7   8   9  10  11  12  13  14  15  16  17  18  19  20
  JobIph:        1   1   1   1   1   1   1   1   1   1   1   1   2   2   2   3   3   3   4   4
 Root nr:        1   2   3   4   5   6   7   8   9  10  11  12   1   2   3   1   2   3   1   2

   State:       21  22  23  24  25  26  27  28  29  30  31  32  33  34  35  36  37  38  39  40
  JobIph:        4   4   4   5   5   5   5   5   5   6   7   7   7   7   7   8   8   8   8   8
 Root nr:        3   4   5   1   2   3   4   5   6   1   1   2   3   4   5   1   2   3   4   5

   State:       41  42  43  44  45  46  47  48  49  50  51  52  53  54  55  56  57  58  59  60
  JobIph:        8   9  10  10  10  10  10  11  11  11  11  11  11  12  13  13  13  14  14  14
 Root nr:        6   1   1   2   3   4   5   1   2   3   4   5   6   1   1   2   3   1   2   3

   State:       61  62  63  64  65  66  67  68  69  70  71  72  73  74  75  76  77  78  79  80
  JobIph:       14  14  14  15  15  15  15  15  16  16  16  16  16  16  17  18  18  18  18  18
 Root nr:        4   5   6   1   2   3   4   5   1   2   3   4   5   6   1   1   2   3   4   5

   State:       81  82  83  84  85  86  87  88  89  90  91  92  93  94  95  96  97  98  99
  JobIph:       19  19  19  19  19  19  20  21  21  21  21  21  22  22  22  22  22  22  23
 Root nr:        1   2   3   4   5   6   1   1   2   3   4   5   1   2   3   4   5   6   1

  HAMILTONIAN MATRIX FOR THE ORIGINAL STATES:

  Diagonal, with energies
   -149.60894244   -149.60892144   -149.59708372   -149.44743453   -149.44643747
   -149.44641574   -149.44291949   -149.43807814   -149.43807733   -149.37874512
   -149.37416172   -149.31023858   -149.52768811   -149.52766654   -149.51758065
   -149.60894060   -149.60891962   -149.59708365   -149.60306246   -149.44693192
   -149.44234910   -149.44226607   -149.37825015   -149.60314446   -149.52820170
   -149.52360329   -149.52360013   -149.52184934   -149.45960404   -149.60306276
   -149.60306246   -149.44693192   -149.44234910   -149.44226607   -149.37825015
   -149.60314446   -149.52820170   -149.52360329   -149.52360013   -149.52184934
   -149.45960404   -149.60306276   -149.60894244   -149.44643747   -149.44291949
   -149.43807733   -149.37416172   -149.60896411   -149.52771230   -149.52768811
   -149.52243603   -149.51758065   -149.45369428   -149.60894060   -149.44294656
   -149.37904066   -149.37422109   -149.60894183   -149.60892083   -149.59708369
   -149.52769010   -149.52766850   -149.51758073   -149.60314390   -149.44696746
   -149.44243029   -149.44234844   -149.37845345   -149.60306256   -149.52820220
   -149.52360329   -149.52360083   -149.52184972   -149.45960449   -149.60314559
   -149.60314390   -149.44696746   -149.44243029   -149.44234844   -149.37845345
   -149.60306256   -149.52820220   -149.52360329   -149.52360083   -149.52184972
   -149.45960449   -149.60314559   -149.60896466   -149.44645929   -149.44294656
   -149.43807815   -149.37422109   -149.60894183   -149.52771041   -149.52769010
   -149.52243607   -149.51758073   -149.45369436   -149.60896302

      OVERLAP MATRIX FOR THE ORIGINAL STATES:

  Diagonal, with elements
      1.00000000      1.00000000      1.00000000      1.00000000      1.00000000
      1.00000000      1.00000000      1.00000000      1.00000000      1.00000000
      1.00000000      1.00000000      1.00000000      1.00000000      1.00000000
      1.00000000      1.00000000      1.00000000      1.00000000      1.00000000
      1.00000000      1.00000000      1.00000000      1.00000000      1.00000000
      1.00000000      1.00000000      1.00000000      1.00000000      1.00000000
      1.00000000      1.00000000      1.00000000      1.00000000      1.00000000
      1.00000000      1.00000000      1.00000000      1.00000000      1.00000000
      1.00000000      1.00000000      1.00000000      1.00000000      1.00000000
      1.00000000      1.00000000      1.00000000      1.00000000      1.00000000
      1.00000000      1.00000000      1.00000000      1.00000000      1.00000000
      1.00000000      1.00000000      1.00000000      1.00000000      1.00000000
      1.00000000      1.00000000      1.00000000      1.00000000      1.00000000
      1.00000000      1.00000000      1.00000000      1.00000000      1.00000000
      1.00000000      1.00000000      1.00000000      1.00000000      1.00000000
      1.00000000      1.00000000      1.00000000      1.00000000      1.00000000
      1.00000000      1.00000000      1.00000000      1.00000000      1.00000000
      1.00000000      1.00000000      1.00000000      1.00000000      1.00000000
      1.00000000      1.00000000      1.00000000      1.00000000      1.00000000
      1.00000000      1.00000000      1.00000000      1.00000000

::    RASSI State    1     Total energy:    -149.60894244276574
::    RASSI State    2     Total energy:    -149.60892143618662
::    RASSI State    3     Total energy:    -149.59708371599172
::    RASSI State    4     Total energy:    -149.44743453293026
::    RASSI State    5     Total energy:    -149.44643746644053
::    RASSI State    6     Total energy:    -149.44641574298916
::    RASSI State    7     Total energy:    -149.44291948731967
::    RASSI State    8     Total energy:    -149.43807814285148
::    RASSI State    9     Total energy:    -149.43807732531897
::    RASSI State   10     Total energy:    -149.37874512062677
::    RASSI State   11     Total energy:    -149.37416171772776
::    RASSI State   12     Total energy:    -149.31023857928778
::    RASSI State   13     Total energy:    -149.52768811477586
::    RASSI State   14     Total energy:    -149.52766653988317
::    RASSI State   15     Total energy:    -149.51758065145631
::    RASSI State   16     Total energy:    -149.60894059842570
::    RASSI State   17     Total energy:    -149.60891962359440
::    RASSI State   18     Total energy:    -149.59708364623157
::    RASSI State   19     Total energy:    -149.60306245889447
::    RASSI State   20     Total energy:    -149.44693192068101
::    RASSI State   21     Total energy:    -149.44234910109185
::    RASSI State   22     Total energy:    -149.44226606639393
::    RASSI State   23     Total energy:    -149.37825014933861
::    RASSI State   24     Total energy:    -149.60314446468038
::    RASSI State   25     Total energy:    -149.52820169998577
::    RASSI State   26     Total energy:    -149.52360329388543
::    RASSI State   27     Total energy:    -149.52360012724111
::    RASSI State   28     Total energy:    -149.52184934276684
::    RASSI State   29     Total energy:    -149.45960404161735
::    RASSI State   30     Total energy:    -149.60306275991121
::    RASSI State   31     Total energy:    -149.60306245889427
::    RASSI State   32     Total energy:    -149.44693192068107
::    RASSI State   33     Total energy:    -149.44234910109188
::    RASSI State   34     Total energy:    -149.44226606639384
::    RASSI State   35     Total energy:    -149.37825014933861
::    RASSI State   36     Total energy:    -149.60314446468035
::    RASSI State   37     Total energy:    -149.52820169998580
::    RASSI State   38     Total energy:    -149.52360329388549
::    RASSI State   39     Total energy:    -149.52360012724120
::    RASSI State   40     Total energy:    -149.52184934276681
::    RASSI State   41     Total energy:    -149.45960404161735
::    RASSI State   42     Total energy:    -149.60306275991113
::    RASSI State   43     Total energy:    -149.60894244276588
::    RASSI State   44     Total energy:    -149.44643746644064
::    RASSI State   45     Total energy:    -149.44291948731959
::    RASSI State   46     Total energy:    -149.43807732531917
::    RASSI State   47     Total energy:    -149.37416171772784
::    RASSI State   48     Total energy:    -149.60896410992876
::    RASSI State   49     Total energy:    -149.52771229535335
::    RASSI State   50     Total energy:    -149.52768811477588
::    RASSI State   51     Total energy:    -149.52243602931335
::    RASSI State   52     Total energy:    -149.51758065145640
::    RASSI State   53     Total energy:    -149.45369428239786
::    RASSI State   54     Total energy:    -149.60894059842579
::    RASSI State   55     Total energy:    -149.44294656462591
::    RASSI State   56     Total energy:    -149.37904066174156
::    RASSI State   57     Total energy:    -149.37422108997583
::    RASSI State   58     Total energy:    -149.60894182800274
::    RASSI State   59     Total energy:    -149.60892083200719
::    RASSI State   60     Total energy:    -149.59708369273866
::    RASSI State   61     Total energy:    -149.52769010238083
::    RASSI State   62     Total energy:    -149.52766850160566
::    RASSI State   63     Total energy:    -149.51758073396852
::    RASSI State   64     Total energy:    -149.60314390359329
::    RASSI State   65     Total energy:    -149.44696745987122
::    RASSI State   66     Total energy:    -149.44243029002860
::    RASSI State   67     Total energy:    -149.44234844425011
::    RASSI State   68     Total energy:    -149.37845345091046
::    RASSI State   69     Total energy:    -149.60306255923464
::    RASSI State   70     Total energy:    -149.52820220270723
::    RASSI State   71     Total energy:    -149.52360329095936
::    RASSI State   72     Total energy:    -149.52360082872124
::    RASSI State   73     Total energy:    -149.52184971603512
::    RASSI State   74     Total energy:    -149.45960449245661
::    RASSI State   75     Total energy:    -149.60314558682509
::    RASSI State   76     Total energy:    -149.60314390359326
::    RASSI State   77     Total energy:    -149.44696745987122
::    RASSI State   78     Total energy:    -149.44243029002857
::    RASSI State   79     Total energy:    -149.44234844425009
::    RASSI State   80     Total energy:    -149.37845345091048
::    RASSI State   81     Total energy:    -149.60306255923476
::    RASSI State   82     Total energy:    -149.52820220270729
::    RASSI State   83     Total energy:    -149.52360329095939
::    RASSI State   84     Total energy:    -149.52360082872121
::    RASSI State   85     Total energy:    -149.52184971603518
::    RASSI State   86     Total energy:    -149.45960449245658
::    RASSI State   87     Total energy:    -149.60314558682506
::    RASSI State   88     Total energy:    -149.60896465540782
::    RASSI State   89     Total energy:    -149.44645928773781
::    RASSI State   90     Total energy:    -149.44294656462594
::    RASSI State   91     Total energy:    -149.43807814531240
::    RASSI State   92     Total energy:    -149.37422108997583
::    RASSI State   93     Total energy:    -149.60894182800268
::    RASSI State   94     Total energy:    -149.52771040952689
::    RASSI State   95     Total energy:    -149.52769010238080
::    RASSI State   96     Total energy:    -149.52243607411276
::    RASSI State   97     Total energy:    -149.51758073396843
::    RASSI State   98     Total energy:    -149.45369435898016
::    RASSI State   99     Total energy:    -149.60896301889716



      ****************************************************************************************************
      *                                                                                                  *
      *                                         Spin-free section                                        *
      *                                                                                                  *
      *                 Note: index according to input order, order according to energy.                 *
      *                                                                                                  *
      ****************************************************************************************************



  SPIN-FREE ENERGIES:
  (Shifted by EMIN (a.u.) =       -149.6089646554)

 SF State       Relative EMIN(au)   Rel lowest level(eV)    D:o, cm**(-1)      L_eff   Abs_M

    88             0.0000000000        0.0000000000              0.0000         1.0     0.0
    48             0.0000005455        0.0000148432              0.1197         1.0     0.0
    99             0.0000016365        0.0000445317              0.3592         1.0     0.0
    43             0.0000222126        0.0006044368              4.8751         2.0     2.0
     1             0.0000222126        0.0006044368              4.8751         2.0     2.0
    58             0.0000228274        0.0006211653              5.0100         2.0     2.0
    93             0.0000228274        0.0006211653              5.0100         2.0     2.0
    54             0.0000240570        0.0006546238              5.2799         2.0     2.0
    16             0.0000240570        0.0006546238              5.2799         2.0     2.0
     2             0.0000432192        0.0011760549              9.4855         1.0     0.0
    59             0.0000438234        0.0011924955              9.6181         1.0     0.0
    17             0.0000450318        0.0012253781              9.8833         1.0     0.0
    75             0.0058190686        0.1583449228           1277.1379         2.0     1.0
    87             0.0058190686        0.1583449228           1277.1379         2.0     1.0
    24             0.0058201907        0.1583754579           1277.3842         2.0     1.0
    36             0.0058201907        0.1583754579           1277.3842         2.0     1.0
    64             0.0058207518        0.1583907259           1277.5074         2.0     1.0
    76             0.0058207518        0.1583907259           1277.5074         2.0     1.0
    30             0.0059018955        0.1605987579           1295.3163         1.0     1.0
    42             0.0059018955        0.1605987579           1295.3163         1.0     1.0
    81             0.0059020962        0.1606042186           1295.3604         1.0     1.0
    69             0.0059020962        0.1606042186           1295.3604         1.0     1.0
    19             0.0059021965        0.1606069490           1295.3824         1.0     1.0
    31             0.0059021965        0.1606069490           1295.3824         1.0     1.0
     3             0.0118809394        0.3232968314           2607.5648         1.6     0.0
    60             0.0118809627        0.3232974642           2607.5699         1.6     0.0
    18             0.0118810092        0.3232987297           2607.5801         1.6     0.0
    82             0.0807624527        2.1976582946          17725.3095         2.4     1.0
    70             0.0807624527        2.1976582946          17725.3095         2.4     1.0
    37             0.0807629554        2.1976719744          17725.4199         2.4     1.0
    25             0.0807629554        2.1976719744          17725.4199         2.4     1.0
    49             0.0812523601        2.2109893528          17832.8318         2.0     0.0
    94             0.0812542459        2.2110406688          17833.2457         2.0     0.0
    61             0.0812745530        2.2115932544          17837.7026         2.7     2.0
    95             0.0812745530        2.2115932544          17837.7026         2.7     2.0
    50             0.0812765406        2.2116473399          17838.1388         2.7     2.0
    13             0.0812765406        2.2116473399          17838.1388         2.7     2.0
    62             0.0812961538        2.2121810414          17842.4434         2.0     0.0
    14             0.0812981155        2.2122344226          17842.8739         2.0     0.0
    38             0.0853613615        2.3228009789          18734.6534         1.6     1.0
    26             0.0853613615        2.3228009789          18734.6534         1.6     1.0
    83             0.0853613644        2.3228010585          18734.6540         1.6     1.0
    71             0.0853613644        2.3228010585          18734.6540         1.6     1.0
    72             0.0853638267        2.3228680594          18735.1944         3.0     3.0
    84             0.0853638267        2.3228680594          18735.1944         3.0     3.0
    39             0.0853645282        2.3228871476          18735.3484         3.0     3.0
    27             0.0853645282        2.3228871477          18735.3484         3.0     3.0
    96             0.0865285813        2.3545626469          18990.8285         2.4     0.0
    51             0.0865286261        2.3545638660          18990.8383         2.4     0.0
    85             0.0871149394        2.3705182631          19119.5192         2.3     1.0
    73             0.0871149394        2.3705182631          19119.5192         2.3     1.0
    28             0.0871153126        2.3705284202          19119.6011         2.3     1.0
    40             0.0871153126        2.3705284202          19119.6011         2.3     1.0
    63             0.0913839214        2.4866831830          20056.4525         2.4     2.0
    97             0.0913839214        2.4866831830          20056.4525         2.4     2.0
    52             0.0913840040        2.4866854282          20056.4706         2.4     2.0
    15             0.0913840040        2.4866854282          20056.4706         2.4     2.0
    74             0.1493601630        4.0642970838          32780.7667         1.0     1.0
    86             0.1493601630        4.0642970838          32780.7667         1.0     1.0
    41             0.1493606138        4.0643093518          32780.8657         1.0     1.0
    29             0.1493606138        4.0643093518          32780.8657         1.0     1.0
    98             0.1552702964        4.2251200086          34077.8911         1.0     0.0
    53             0.1552703730        4.2251220925          34077.9079         1.0     0.0
     4             0.1615301225        4.3954585531          35451.7641         2.9     0.0
    65             0.1619971955        4.4081682585          35554.2748         3.8     1.0
    77             0.1619971955        4.4081682585          35554.2748         3.8     1.0
    32             0.1620327347        4.4091353291          35562.0747         2.0     1.0
    20             0.1620327347        4.4091353291          35562.0747         2.0     1.0
    89             0.1625053677        4.4219963267          35665.8057         2.7     0.0
    44             0.1625271890        4.4225901145          35670.5949         3.3     2.0
     5             0.1625271890        4.4225901145          35670.5949         3.3     2.0
     6             0.1625489124        4.4231812397          35675.3626         2.7     0.0
    90             0.1660180908        4.5175823921          36436.7593         3.0     2.0
    55             0.1660180908        4.5175823921          36436.7593         3.0     2.0
     7             0.1660451681        4.5183192031          36442.7021         3.0     2.0
    45             0.1660451681        4.5183192031          36442.7021         3.0     2.0
    66             0.1665343654        4.5316309396          36550.0685         4.0     3.0
    78             0.1665343654        4.5316309396          36550.0685         4.0     3.0
    33             0.1666155543        4.5338402031          36567.8874         2.4     1.0
    21             0.1666155543        4.5338402031          36567.8874         2.4     1.0
    67             0.1666162112        4.5338580767          36568.0315         2.4     1.0
    79             0.1666162112        4.5338580767          36568.0315         2.4     1.0
    22             0.1666985890        4.5360996923          36586.1114         3.0     3.0
    34             0.1666985890        4.5360996923          36586.1114         3.0     3.0
    91             0.1708865101        4.6500588304          37505.2538         1.6     0.0
     8             0.1708865126        4.6500588974          37505.2543         1.6     0.0
    46             0.1708873301        4.6500811436          37505.4338         4.0     4.0
     9             0.1708873301        4.6500811436          37505.4338         4.0     4.0
    56             0.2299239937        6.2565505989          50462.4838         2.0     0.0
    10             0.2302195348        6.2645926823          50527.3475         2.0     0.0
    80             0.2305112045        6.2725294196          50591.3616         2.0     1.0
    68             0.2305112045        6.2725294196          50591.3616         2.0     1.0
    23             0.2307145061        6.2780615372          50635.9812         2.0     1.0
    35             0.2307145061        6.2780615372          50635.9812         2.0     1.0
    92             0.2347435654        6.3876978277          51520.2575         2.0     2.0
    57             0.2347435654        6.3876978277          51520.2575         2.0     2.0
    47             0.2348029377        6.3893134289          51533.2882         2.0     2.0
    11             0.2348029377        6.3893134289          51533.2882         2.0     2.0
    12             0.2987260761        8.1287506390          65562.7954         0.0     0.0

++ Dipole transition strengths (spin-free states):
   -----------------------------------------------
     for osc. strength at least  1.00000000E-05

  ( Max oscillator strength is only    7.1341662080190696E-008 )
--

++ Velocity transition strengths (spin-free states):
   -------------------------------------------------
     for osc. strength at least  1.00000000E-05

      From   To        Osc. strength     Einstein coefficients Ax, Ay, Az (sec-1)    Total A (sec-1)
     -----------------------------------------------------------------------------------------------
        75   30       2.57558210E-04  0.00000000E+00  0.00000000E+00  5.67713526E-02  5.67713526E-02
        87   42       2.57558210E-04  0.00000000E+00  0.00000000E+00  5.67713526E-02  5.67713526E-02
        24   69       2.59915180E-04  0.00000000E+00  0.00000000E+00  5.60232223E-02  5.60232223E-02
        36   81       2.59915181E-04  0.00000000E+00  0.00000000E+00  5.60232222E-02  5.60232222E-02
        64   19       2.61113903E-04  0.00000000E+00  0.00000000E+00  5.56501735E-02  5.56501735E-02
        76   31       2.61113903E-04  0.00000000E+00  0.00000000E+00  5.56501736E-02  5.56501736E-02
        30   18       1.50493099E-05  1.72862620E+01  0.00000000E+00  0.00000000E+00  1.72862620E+01
        42   18       1.50493099E-05  0.00000000E+00  1.72862620E+01  0.00000000E+00  1.72862620E+01
        81   60       1.49972489E-05  0.00000000E+00  1.72250383E+01  0.00000000E+00  1.72250383E+01
        69   60       1.49972489E-05  1.72250383E+01  0.00000000E+00  0.00000000E+00  1.72250383E+01
        19    3       1.49712514E-05  1.71944680E+01  0.00000000E+00  0.00000000E+00  1.71944680E+01
        31    3       1.49712514E-05  0.00000000E+00  1.71944680E+01  0.00000000E+00  1.71944680E+01
        38   85       1.81914244E-05  0.00000000E+00  0.00000000E+00  1.79732946E+00  1.79732946E+00
        26   73       1.81914244E-05  0.00000000E+00  0.00000000E+00  1.79732946E+00  1.79732946E+00
        83   40       1.81821759E-05  0.00000000E+00  0.00000000E+00  1.79717455E+00  1.79717455E+00
        71   28       1.81821759E-05  0.00000000E+00  0.00000000E+00  1.79717455E+00  1.79717455E+00
        96   85       1.45220758E-04  1.60422547E+00  0.00000000E+00  0.00000000E+00  1.60422547E+00
        96   73       1.45220758E-04  0.00000000E+00  1.60422547E+00  0.00000000E+00  1.60422547E+00
        51   28       1.45107340E-04  0.00000000E+00  1.60476899E+00  0.00000000E+00  1.60476899E+00
        51   40       1.45107340E-04  1.60476898E+00  0.00000000E+00  0.00000000E+00  1.60476898E+00
         4   32       3.03706786E-05  0.00000000E+00  2.46508283E-01  0.00000000E+00  2.46508283E-01
         4   20       3.03706786E-05  2.46508283E-01  0.00000000E+00  0.00000000E+00  2.46508283E-01
        65   20       3.95973105E-04  0.00000000E+00  0.00000000E+00  1.60691027E-02  1.60691027E-02
        77   32       3.95973106E-04  0.00000000E+00  0.00000000E+00  1.60691027E-02  1.60691027E-02
        44   90       1.85494168E-05  0.00000000E+00  0.00000000E+00  7.26300612E+00  7.26300612E+00
         5   55       1.85494168E-05  0.00000000E+00  0.00000000E+00  7.26300612E+00  7.26300612E+00
        90   66       4.69507653E-05  0.00000000E+00  4.02082408E-01  0.00000000E+00  4.02082408E-01
        90   78       4.69507653E-05  4.02082408E-01  0.00000000E+00  0.00000000E+00  4.02082408E-01
        90   67       1.09408956E-04  0.00000000E+00  1.25759543E+00  0.00000000E+00  1.25759543E+00
        90   79       1.09408956E-04  1.25759543E+00  0.00000000E+00  0.00000000E+00  1.25759543E+00
        55   66       4.69507654E-05  4.02082408E-01  0.00000000E+00  0.00000000E+00  4.02082408E-01
        55   78       4.69507654E-05  0.00000000E+00  4.02082408E-01  0.00000000E+00  4.02082408E-01
        55   67       1.09408956E-04  1.25759543E+00  0.00000000E+00  0.00000000E+00  1.25759543E+00
        55   79       1.09408956E-04  0.00000000E+00  1.25759543E+00  0.00000000E+00  1.25759543E+00
         7   33       1.14290252E-04  0.00000000E+00  1.19469799E+00  0.00000000E+00  1.19469799E+00
         7   21       1.14290252E-04  1.19469799E+00  0.00000000E+00  0.00000000E+00  1.19469799E+00
         7   22       3.84597005E-05  5.27597657E-01  0.00000000E+00  0.00000000E+00  5.27597657E-01
         7   34       3.84597005E-05  0.00000000E+00  5.27597657E-01  0.00000000E+00  5.27597657E-01
        45   33       1.14290252E-04  1.19469799E+00  0.00000000E+00  0.00000000E+00  1.19469799E+00
        45   21       1.14290252E-04  0.00000000E+00  1.19469799E+00  0.00000000E+00  1.19469799E+00
        45   22       3.84597006E-05  0.00000000E+00  5.27597658E-01  0.00000000E+00  5.27597658E-01
        45   34       3.84597006E-05  5.27597658E-01  0.00000000E+00  0.00000000E+00  5.27597658E-01
        66   22       2.76909256E-04  0.00000000E+00  0.00000000E+00  2.39949404E-01  2.39949404E-01
        78   34       2.76909256E-04  0.00000000E+00  0.00000000E+00  2.39949404E-01  2.39949404E-01
        33    8       3.66372730E-05  0.00000000E+00  2.14726020E+01  0.00000000E+00  2.14726020E+01
        21    8       3.66372730E-05  2.14726020E+01  0.00000000E+00  0.00000000E+00  2.14726020E+01
        67   91       3.66525802E-05  0.00000000E+00  2.14749416E+01  0.00000000E+00  2.14749416E+01
        79   91       3.66525802E-05  2.14749416E+01  0.00000000E+00  0.00000000E+00  2.14749416E+01
        56   10       1.50016695E-04  0.00000000E+00  0.00000000E+00  4.21004067E-01  4.21004067E-01
        10   23       1.37001365E-04  1.07843951E+00  0.00000000E+00  0.00000000E+00  1.07843951E+00
        10   35       1.37001365E-04  0.00000000E+00  1.07843951E+00  0.00000000E+00  1.07843951E+00
        80   35       4.78196035E-05  0.00000000E+00  0.00000000E+00  6.35035972E-02  6.35035972E-02
        68   23       4.78196035E-05  0.00000000E+00  0.00000000E+00  6.35035972E-02  6.35035972E-02
     -----------------------------------------------------------------------------------------------
--

++ Length and velocity gauge comparison (spin-free states):
   --------------------------------------------------------

 --------------------------------------------------
 A comparison between the dipole oscillator strengths in 
 length and velocity gauge will be performed

     All dipole oscillator differences above the tolerance of   1.00000000E-01  will be printed 

 Due to basis set deficiency these oscillator may be problematic 

 The tolerance is defined as ABS(1-O_l/O_v) 
 O_l : dipole oscillator strength in length gauge
 O_p : dipole oscillator strength in velocity gauge
 --------------------------------------------------

  Problematic transitions have been found

      From   To       Difference (%) Osc. st. (len.) Osc. st. (vel.)
     ---------------------------------------------------------------
        75   30      --------------- below threshold  2.57558210E-04
        87   42      --------------- below threshold  2.57558210E-04
        24   69      --------------- below threshold  2.59915180E-04
        36   81      --------------- below threshold  2.59915181E-04
        64   19      --------------- below threshold  2.61113903E-04
        76   31      --------------- below threshold  2.61113903E-04
        30   18      --------------- below threshold  1.50493099E-05
        42   18      --------------- below threshold  1.50493099E-05
        81   60      --------------- below threshold  1.49972489E-05
        69   60      --------------- below threshold  1.49972489E-05
        19    3      --------------- below threshold  1.49712514E-05
        31    3      --------------- below threshold  1.49712514E-05
        38   85      --------------- below threshold  1.81914244E-05
        26   73      --------------- below threshold  1.81914244E-05
        83   40      --------------- below threshold  1.81821759E-05
        71   28      --------------- below threshold  1.81821759E-05
        96   85      --------------- below threshold  1.45220758E-04
        96   73      --------------- below threshold  1.45220758E-04
        51   28      --------------- below threshold  1.45107340E-04
        51   40      --------------- below threshold  1.45107340E-04
         4   32      --------------- below threshold  3.03706786E-05
         4   20      --------------- below threshold  3.03706786E-05
        65   20      --------------- below threshold  3.95973105E-04
        77   32      --------------- below threshold  3.95973106E-04
        44   90      --------------- below threshold  1.85494168E-05
         5   55      --------------- below threshold  1.85494168E-05
        90   66      --------------- below threshold  4.69507653E-05
        90   78      --------------- below threshold  4.69507653E-05
        90   67      --------------- below threshold  1.09408956E-04
        90   79      --------------- below threshold  1.09408956E-04
        55   66      --------------- below threshold  4.69507654E-05
        55   78      --------------- below threshold  4.69507654E-05
        55   67      --------------- below threshold  1.09408956E-04
        55   79      --------------- below threshold  1.09408956E-04
         7   33      --------------- below threshold  1.14290252E-04
         7   21      --------------- below threshold  1.14290252E-04
         7   22      --------------- below threshold  3.84597005E-05
         7   34      --------------- below threshold  3.84597005E-05
        45   33      --------------- below threshold  1.14290252E-04
        45   21      --------------- below threshold  1.14290252E-04
        45   22      --------------- below threshold  3.84597006E-05
        45   34      --------------- below threshold  3.84597006E-05
        66   22      --------------- below threshold  2.76909256E-04
        78   34      --------------- below threshold  2.76909256E-04
        33    8      --------------- below threshold  3.66372730E-05
        21    8      --------------- below threshold  3.66372730E-05
        67   91      --------------- below threshold  3.66525802E-05
        79   91      --------------- below threshold  3.66525802E-05
        56   10      --------------- below threshold  1.50016695E-04
        10   23      --------------- below threshold  1.37001365E-04
        10   35      --------------- below threshold  1.37001365E-04
        80   35      --------------- below threshold  4.78196035E-05
        68   23      --------------- below threshold  4.78196035E-05
     ---------------------------------------------------------------

 Number of problematic transitions =                    53

--

 Electric-dipole - electric-octupole not included
 Electric-dipole - magnetic-quadrupole not included


      ****************************************************************************************************
      *                                                                                                  *
      *                                    Special properties section                                    *
      *                                                                                                  *
      ****************************************************************************************************


++ I/O STATISTICS
 
  I. General I/O information
  - - - - - - - - - - - - - - - - - - - - - - - - - - - - - - - - - - - - - - - - - - -
  Unit  Name          Flsize      Write/Read            MBytes           Write/Read
                      (MBytes)       Calls              In/Out           Time, sec.
  - - - - - - - - - - - - - - - - - - - - - - - - - - - - - - - - - - - - - - - - - - -
   1  RUNFILE           0.99 .     266/  263189 .      2.5/   1903.9 .       0/       0
   2  ANNI              0.00 .       0/       0 .      0.0/      0.0 .       0/       0
   3  ONEINT            1.54 .       0/  126040 .      0.0/ 152831.4 .       0/      19
   4  JOBIPH            1.52 .       0/     651 .      0.0/      1.5 .       0/       0
   5  JOBIPH01          1.22 .       0/     219 .      0.0/      1.3 .       0/       0
   6  JOBIPH02          1.22 .       0/     219 .      0.0/      1.3 .       0/       0
   7  JOBIPH03          1.28 .       0/     315 .      0.0/      1.4 .       0/       0
   8  JOBIPH04          1.32 .       0/     363 .      0.0/      1.4 .       0/       0
   9  JOBIPH05          1.15 .       0/     123 .      0.0/      1.3 .       0/       0
  10  JOBIPH06          1.28 .       0/     315 .      0.0/      1.4 .       0/       0
  11  JOBIPH07          1.32 .       0/     363 .      0.0/      1.4 .       0/       0
  12  JOBIPH08          1.15 .       0/     123 .      0.0/      1.3 .       0/       0
  13  JOBIPH09          1.28 .       0/     315 .      0.0/      1.4 .       0/       0
  14  JOBIPH10          1.32 .       0/     363 .      0.0/      1.4 .       0/       0
  15  JOBIPH11          1.15 .       0/     123 .      0.0/      1.3 .       0/       0
  16  JOBIPH12          1.22 .       0/     219 .      0.0/      1.3 .       0/       0
  17  JOBIPH13          1.32 .       0/     363 .      0.0/      1.4 .       0/       0
  18  JOBIPH14          1.28 .       0/     315 .      0.0/      1.4 .       0/       0
  19  JOBIPH15          1.32 .       0/     363 .      0.0/      1.4 .       0/       0
  20  JOBIPH16          1.15 .       0/     123 .      0.0/      1.3 .       0/       0
  21  JOBIPH17          1.28 .       0/     315 .      0.0/      1.4 .       0/       0
  22  JOBIPH18          1.32 .       0/     363 .      0.0/      1.4 .       0/       0
  23  JOBIPH19          1.15 .       0/     123 .      0.0/      1.3 .       0/       0
  24  JOBIPH20          1.28 .       0/     315 .      0.0/      1.4 .       0/       0
  25  JOBIPH21          1.32 .       0/     363 .      0.0/      1.4 .       0/       0
  26  JOBIPH22          1.15 .       0/     123 .      0.0/      1.3 .       0/       0
  - - - - - - - - - - - - - - - - - - - - - - - - - - - - - - - - - - - - - - - - - - -
   *  TOTAL            31.50 .     266/  395706 .      2.5/ 154766.4 .       0/      20
  - - - - - - - - - - - - - - - - - - - - - - - - - - - - - - - - - - - - - - - - - - -
 
  II. I/O Access Patterns
  - - - - - - - - - - - - - - - - - - - -
  Unit  Name               % of random
                         Write/Read calls
  - - - - - - - - - - - - - - - - - - - -
   1  RUNFILE             28.6/  11.1
   2  ANNI                 0.0/   0.0
   3  ONEINT               0.0/  99.3
   4  JOBIPH               0.0/  51.9
   5  JOBIPH01             0.0/  55.7
   6  JOBIPH02             0.0/  55.7
   7  JOBIPH03             0.0/  54.0
   8  JOBIPH04             0.0/  53.4
   9  JOBIPH05             0.0/  60.2
  10  JOBIPH06             0.0/  54.0
  11  JOBIPH07             0.0/  53.4
  12  JOBIPH08             0.0/  60.2
  13  JOBIPH09             0.0/  54.0
  14  JOBIPH10             0.0/  53.4
  15  JOBIPH11             0.0/  60.2
  16  JOBIPH12             0.0/  55.7
  17  JOBIPH13             0.0/  53.4
  18  JOBIPH14             0.0/  54.0
  19  JOBIPH15             0.0/  53.4
  20  JOBIPH16             0.0/  60.2
  21  JOBIPH17             0.0/  54.0
  22  JOBIPH18             0.0/  53.4
  23  JOBIPH19             0.0/  60.2
  24  JOBIPH20             0.0/  54.0
  25  JOBIPH21             0.0/  53.4
  26  JOBIPH22             0.0/  60.2
  - - - - - - - - - - - - - - - - - - - -
--
--- Stop Module: rassi at Thu Apr 17 11:08:40 2025 /rc=_RC_ALL_IS_WELL_ ---
--- Module rassi spent 41 seconds ---

.##################.
.# Happy landing! #.
.##################.

    Timing: Wall=41.34 User=19.86 System=20.42
