   This run of MOLCAS is using the pymolcas driver

                             OPE
                             OPE          NMOL  CASOP  ENMOLC A   SO
                 OPE        NMOLC        AS  OP EN  MO LC     AS  OP
                OPENM       OL CA        SO  PE NM  OL CA     SOP EN
                OP EN      MO   LC       AS  OP ENMOL  CASO   PENMOL
                OP  EN     MO   LC       AS  OP EN     MO     LC ASO
               OP   E  NMOL  C  AS       OP  EN MO     LC     AS  OP
               OP  E   NMO   LC AS        OPEN  MO     LCASOP EN   M
               O  PEN   MO  LCA  SO
            OPE   NMO   L   CAS    OP
        OPENMOL  CASOP     ENMOL   CASOPE
     OPENMOLCA   SOPENMOLCASOPEN   MOLCASOPE
    OPENMOLCAS   OP           EN   MOL    CAS
    OPENMOLCAS       OP  ENM        O     LCA
    OPENMOLCAS    OPEN  MOLCASO     P  E  NMO
    OPENMOLCAS     OP               E  N  MOL
    OPENMOLCA   SO           PENM   O  L  CAS    OPEN    MO    LCAS
    OPENMOLCA   SOP           ENM   O  L  CAS   OP  EN  MOLC  AS   O
    OPENMOLCA   SOPE           NM      O  LCA   S      OP  EN MO
    OPENMOLC                AS         O  PEN   M      OL  CA  SOPE
    OPENMO        LCASOPE  NMOL        C  ASO   P      ENMOLC     AS
    OPE     NMO      LCA  SO     P     E   NM   OL  CA SO  PE N   MO
          OPENMOLCA            SOPE   NMO        LCAS  O    P  ENMO
     OPENMOLCASOPENMOLCASOPENMOLCASOPENMOLCA
        OPENMOLCASOPENMOLCASOPENMOLCASOPE
            OPENMOLCASOPENMOLCASOPENM
               OPENMOLCASOPENMOLCA        version: 25.02
                   OPENMOLCASO
                       OPE                tag: 92-gf4b470f0a

 OpenMolcas is free software; you can redistribute it and/or modify it
 under the terms of the GNU Lesser General Public License version 2.1.
 OpenMolcas is distributed in the hope that it will be useful, but it
 is provided "as is" and without any express or implied warranties.
 For more details see the full text of the license in the file
 LICENSE or in <http://www.gnu.org/licenses/>.

                 Copyright (C) The OpenMolcas Authors
           For the author list and the recommended citation,
                   consult the file CONTRIBUTORS.md

           *************************************************
           * pymolcas version py2.29                       *
           *   build 2ba4516c4d154a59cba941070ba63e2c      *
           *   (after the EMIL interpreter by V. Veryazov) *
           *************************************************

configuration info
------------------
Host name: iftia91.univ.gda.pl (Linux)
C Compiler ID: GNU
C flags: -std=gnu99
Fortran Compiler ID: GNU
Fortran flags: -cpp -fdefault-integer-8 -fmax-stack-var-size=1048576
Definitions: _MOLCAS_;_I8_;_LINUX_
Parallel: OFF (GA=OFF)


   --------------------------------------------------------------------
  |
  |           Project: O2
  |    Submitted from: /scratch/tecumseh/WorkSpace/O2.3.2500
  |      Scratch area: /scratch/tecumseh/WorkSpace/O2.3.2500
  |   Save outputs to: WORKDIR
  |            Molcas: /home/tecumseh/program/OpenMolcas/build
  |
  | Scratch area is NOT empty
  |
  |    MOLCAS_DRIVER = /home/tecumseh/program/OpenMolcas/build/pymolcas
  |    MOLCAS_NPROCS = 1
  |    MOLCAS_SOURCE = /home/tecumseh/program/OpenMolcas/OpenMolcas
  | MOLCAS_STRUCTURE = 0
  |
   --------------------------------------------------------------------

++ ---------   Input file   ---------

>>> COPY $dir/vectors/$Project.$R.1Ag-12S.JobIph $WorkDir/JOBIPH

>>> COPY $dir/vectors/$Project.$R.3Ag-3S.JobIph $WorkDir/JOBIPH01

>>> COPY $dir/vectors/$Project.$R.5Ag-3S.JobIph $WorkDir/JOBIPH02

>>> COPY $dir/vectors/$Project.$R.1B3u-5S.JobIph $WorkDir/JOBIPH03

>>> COPY $dir/vectors/$Project.$R.3B3u-6S.JobIph $WorkDir/JOBIPH04

>>> COPY $dir/vectors/$Project.$R.5B3u-1S.JobIph $WorkDir/JOBIPH05

>>> COPY $dir/vectors/$Project.$R.1B2u-5S.JobIph $WorkDir/JOBIPH06

>>> COPY $dir/vectors/$Project.$R.3B2u-6S.JobIph $WorkDir/JOBIPH07

>>> COPY $dir/vectors/$Project.$R.5B2u-1S.JobIph $WorkDir/JOBIPH08

>>> COPY $dir/vectors/$Project.$R.1B1g-5S.JobIph $WorkDir/JOBIPH09

>>> COPY $dir/vectors/$Project.$R.3B1g-6S.JobIph $WorkDir/JOBIPH10

>>> COPY $dir/vectors/$Project.$R.5B1g-1S.JobIph $WorkDir/JOBIPH11

>>> COPY $dir/vectors/$Project.$R.1B1u-3S.JobIph $WorkDir/JOBIPH12

>>> COPY $dir/vectors/$Project.$R.3B1u-6S.JobIph $WorkDir/JOBIPH13

>>> COPY $dir/vectors/$Project.$R.1B2g-5S.JobIph $WorkDir/JOBIPH14

>>> COPY $dir/vectors/$Project.$R.3B2g-6S.JobIph $WorkDir/JOBIPH15

>>> COPY $dir/vectors/$Project.$R.5B2g-1S.JobIph $WorkDir/JOBIPH16

>>> COPY $dir/vectors/$Project.$R.1B3g-5S.JobIph $WorkDir/JOBIPH17

>>> COPY $dir/vectors/$Project.$R.3B3g-6S.JobIph $WorkDir/JOBIPH18

>>> COPY $dir/vectors/$Project.$R.5B3g-1S.JobIph $WorkDir/JOBIPH19

>>> COPY $dir/vectors/$Project.$R.1Au-5S.JobIph $WorkDir/JOBIPH20

>>> COPY $dir/vectors/$Project.$R.3Au-6S.JobIph $WorkDir/JOBIPH21

>>> COPY $dir/vectors/$Project.$R.5Au-1S.JobIph $WorkDir/JOBIPH22

&RASSI

OMEGa
NROF=23 12 3 3 5 6 1 5 6 1 5 6 1 3 6 5 6 1 5 6 1 5 6 1
1 2 3 4 5 6 7 8 9 10 11 12
1 2 3
1 2 3
1 2 3 4 5
1 2 3 4 5 6
1
1 2 3 4 5
1 2 3 4 5 6
1
1 2 3 4 5
1 2 3 4 5 6
1
1 2 3
1 2 3 4 5 6
1 2 3 4 5
1 2 3 4 5 6
1
1 2 3 4 5
1 2 3 4 5 6
1
1 2 3 4 5
1 2 3 4 5 6
1
EJOB

-- ----------------------------------

>>> COPY /home/tecumseh/project/molecule/O2/OpenMolcas/vectors/O2.3.2500.1Ag-12S.JobIph /scratch/tecumseh/WorkSpace/O2.3.2500/JOBIPH

>>> COPY /home/tecumseh/project/molecule/O2/OpenMolcas/vectors/O2.3.2500.3Ag-3S.JobIph /scratch/tecumseh/WorkSpace/O2.3.2500/JOBIPH01

>>> COPY /home/tecumseh/project/molecule/O2/OpenMolcas/vectors/O2.3.2500.5Ag-3S.JobIph /scratch/tecumseh/WorkSpace/O2.3.2500/JOBIPH02

>>> COPY /home/tecumseh/project/molecule/O2/OpenMolcas/vectors/O2.3.2500.1B3u-5S.JobIph /scratch/tecumseh/WorkSpace/O2.3.2500/JOBIPH03

>>> COPY /home/tecumseh/project/molecule/O2/OpenMolcas/vectors/O2.3.2500.3B3u-6S.JobIph /scratch/tecumseh/WorkSpace/O2.3.2500/JOBIPH04

>>> COPY /home/tecumseh/project/molecule/O2/OpenMolcas/vectors/O2.3.2500.5B3u-1S.JobIph /scratch/tecumseh/WorkSpace/O2.3.2500/JOBIPH05

>>> COPY /home/tecumseh/project/molecule/O2/OpenMolcas/vectors/O2.3.2500.1B2u-5S.JobIph /scratch/tecumseh/WorkSpace/O2.3.2500/JOBIPH06

>>> COPY /home/tecumseh/project/molecule/O2/OpenMolcas/vectors/O2.3.2500.3B2u-6S.JobIph /scratch/tecumseh/WorkSpace/O2.3.2500/JOBIPH07

>>> COPY /home/tecumseh/project/molecule/O2/OpenMolcas/vectors/O2.3.2500.5B2u-1S.JobIph /scratch/tecumseh/WorkSpace/O2.3.2500/JOBIPH08

>>> COPY /home/tecumseh/project/molecule/O2/OpenMolcas/vectors/O2.3.2500.1B1g-5S.JobIph /scratch/tecumseh/WorkSpace/O2.3.2500/JOBIPH09

>>> COPY /home/tecumseh/project/molecule/O2/OpenMolcas/vectors/O2.3.2500.3B1g-6S.JobIph /scratch/tecumseh/WorkSpace/O2.3.2500/JOBIPH10

>>> COPY /home/tecumseh/project/molecule/O2/OpenMolcas/vectors/O2.3.2500.5B1g-1S.JobIph /scratch/tecumseh/WorkSpace/O2.3.2500/JOBIPH11

>>> COPY /home/tecumseh/project/molecule/O2/OpenMolcas/vectors/O2.3.2500.1B1u-3S.JobIph /scratch/tecumseh/WorkSpace/O2.3.2500/JOBIPH12

>>> COPY /home/tecumseh/project/molecule/O2/OpenMolcas/vectors/O2.3.2500.3B1u-6S.JobIph /scratch/tecumseh/WorkSpace/O2.3.2500/JOBIPH13

>>> COPY /home/tecumseh/project/molecule/O2/OpenMolcas/vectors/O2.3.2500.1B2g-5S.JobIph /scratch/tecumseh/WorkSpace/O2.3.2500/JOBIPH14

>>> COPY /home/tecumseh/project/molecule/O2/OpenMolcas/vectors/O2.3.2500.3B2g-6S.JobIph /scratch/tecumseh/WorkSpace/O2.3.2500/JOBIPH15

>>> COPY /home/tecumseh/project/molecule/O2/OpenMolcas/vectors/O2.3.2500.5B2g-1S.JobIph /scratch/tecumseh/WorkSpace/O2.3.2500/JOBIPH16

>>> COPY /home/tecumseh/project/molecule/O2/OpenMolcas/vectors/O2.3.2500.1B3g-5S.JobIph /scratch/tecumseh/WorkSpace/O2.3.2500/JOBIPH17

>>> COPY /home/tecumseh/project/molecule/O2/OpenMolcas/vectors/O2.3.2500.3B3g-6S.JobIph /scratch/tecumseh/WorkSpace/O2.3.2500/JOBIPH18

>>> COPY /home/tecumseh/project/molecule/O2/OpenMolcas/vectors/O2.3.2500.5B3g-1S.JobIph /scratch/tecumseh/WorkSpace/O2.3.2500/JOBIPH19

>>> COPY /home/tecumseh/project/molecule/O2/OpenMolcas/vectors/O2.3.2500.1Au-5S.JobIph /scratch/tecumseh/WorkSpace/O2.3.2500/JOBIPH20

>>> COPY /home/tecumseh/project/molecule/O2/OpenMolcas/vectors/O2.3.2500.3Au-6S.JobIph /scratch/tecumseh/WorkSpace/O2.3.2500/JOBIPH21

>>> COPY /home/tecumseh/project/molecule/O2/OpenMolcas/vectors/O2.3.2500.5Au-1S.JobIph /scratch/tecumseh/WorkSpace/O2.3.2500/JOBIPH22

--- Start Module: rassi at Thu Apr 17 11:11:23 2025 ---

()()()()()()()()()()()()()()()()()()()()()()()()()()()()()()()()()()()()()()()()()()()()()()()()()()

                                               &RASSI

                                   only a single process is used
                       available to each process: 2.0 GB of memory, 1 thread?
                                            pid: 299824
()()()()()()()()()()()()()()()()()()()()()()()()()()()()()()()()()()()()()()()()()()()()()()()()()()


      ********************************************************************************
      *                                                                              *
      *                             General data section                             *
      *                                                                              *
      ********************************************************************************

   Specific data for JOBIPH file JOBIPH
   -------------------------------------

   Header from SEWARD:
                            O2, D2h symmetry, aug-cc-pVTZ                      
        Integrals generated by Gateway/Seward, Wed Apr 16 15:48:24 2025        

   CASSCF title (first line only):
       O2, 1Ag 12S                                                             

  STATE IRREP:                1
  SPIN MULTIPLICITY:          1
  ACTIVE ELECTRONS:          12
  MAX RAS1 HOLES:             0
  MAX RAS3 ELECTRONS:         0
  NR OF CONFIG:              60

   Specific data for JOBIPH file JOBIPH01
   -------------------------------------

   Header from SEWARD:
                            O2, D2h symmetry, aug-cc-pVTZ                      
        Integrals generated by Gateway/Seward, Wed Apr 16 15:48:24 2025        

   CASSCF title (first line only):
       O2, 3Ag  3S                                                             

  STATE IRREP:                1
  SPIN MULTIPLICITY:          3
  ACTIVE ELECTRONS:          12
  MAX RAS1 HOLES:             0
  MAX RAS3 ELECTRONS:         0
  NR OF CONFIG:              42

   Specific data for JOBIPH file JOBIPH02
   -------------------------------------

   Header from SEWARD:
                            O2, D2h symmetry, aug-cc-pVTZ                      
        Integrals generated by Gateway/Seward, Wed Apr 16 15:48:24 2025        

   CASSCF title (first line only):
       O2, 5Ag  3S                                                             

  STATE IRREP:                1
  SPIN MULTIPLICITY:          5
  ACTIVE ELECTRONS:          12
  MAX RAS1 HOLES:             0
  MAX RAS3 ELECTRONS:         0
  NR OF CONFIG:              10

   Specific data for JOBIPH file JOBIPH03
   -------------------------------------

   Header from SEWARD:
                            O2, D2h symmetry, aug-cc-pVTZ                      
        Integrals generated by Gateway/Seward, Thu Apr 17 11:11:13 2025        

   CASSCF title (first line only):
       O2, 1B3u 5S                                                             

  STATE IRREP:                2
  SPIN MULTIPLICITY:          1
  ACTIVE ELECTRONS:          12
  MAX RAS1 HOLES:             0
  MAX RAS3 ELECTRONS:         0
  NR OF CONFIG:              40

   Specific data for JOBIPH file JOBIPH04
   -------------------------------------

   Header from SEWARD:
                            O2, D2h symmetry, aug-cc-pVTZ                      
        Integrals generated by Gateway/Seward, Wed Apr 16 15:48:24 2025        

   CASSCF title (first line only):
       O2, 3B3u 6S                                                             

  STATE IRREP:                2
  SPIN MULTIPLICITY:          3
  ACTIVE ELECTRONS:          12
  MAX RAS1 HOLES:             0
  MAX RAS3 ELECTRONS:         0
  NR OF CONFIG:              48

   Specific data for JOBIPH file JOBIPH05
   -------------------------------------

   Header from SEWARD:
                            O2, D2h symmetry, aug-cc-pVTZ                      
        Integrals generated by Gateway/Seward, Wed Apr 16 15:48:24 2025        

   CASSCF title (first line only):
       O2, 5B3u 1S                                                             

  STATE IRREP:                2
  SPIN MULTIPLICITY:          5
  ACTIVE ELECTRONS:          12
  MAX RAS1 HOLES:             0
  MAX RAS3 ELECTRONS:         0
  NR OF CONFIG:               8

   Specific data for JOBIPH file JOBIPH06
   -------------------------------------

   Header from SEWARD:
                            O2, D2h symmetry, aug-cc-pVTZ                      
        Integrals generated by Gateway/Seward, Thu Apr 17 11:11:13 2025        

   CASSCF title (first line only):
       O2, 1B2u 5S                                                             

  STATE IRREP:                3
  SPIN MULTIPLICITY:          1
  ACTIVE ELECTRONS:          12
  MAX RAS1 HOLES:             0
  MAX RAS3 ELECTRONS:         0
  NR OF CONFIG:              40

   Specific data for JOBIPH file JOBIPH07
   -------------------------------------

   Header from SEWARD:
                            O2, D2h symmetry, aug-cc-pVTZ                      
        Integrals generated by Gateway/Seward, Wed Apr 16 15:48:24 2025        

   CASSCF title (first line only):
       O2, 3B2u 6S                                                             

  STATE IRREP:                3
  SPIN MULTIPLICITY:          3
  ACTIVE ELECTRONS:          12
  MAX RAS1 HOLES:             0
  MAX RAS3 ELECTRONS:         0
  NR OF CONFIG:              48

   Specific data for JOBIPH file JOBIPH08
   -------------------------------------

   Header from SEWARD:
                            O2, D2h symmetry, aug-cc-pVTZ                      
        Integrals generated by Gateway/Seward, Wed Apr 16 15:48:24 2025        

   CASSCF title (first line only):
       O2, 5B2u 1S                                                             

  STATE IRREP:                3
  SPIN MULTIPLICITY:          5
  ACTIVE ELECTRONS:          12
  MAX RAS1 HOLES:             0
  MAX RAS3 ELECTRONS:         0
  NR OF CONFIG:               8

   Specific data for JOBIPH file JOBIPH09
   -------------------------------------

   Header from SEWARD:
                            O2, D2h symmetry, aug-cc-pVTZ                      
        Integrals generated by Gateway/Seward, Wed Apr 16 15:48:24 2025        

   CASSCF title (first line only):
       O2, 1B1g 5S                                                             

  STATE IRREP:                4
  SPIN MULTIPLICITY:          1
  ACTIVE ELECTRONS:          12
  MAX RAS1 HOLES:             0
  MAX RAS3 ELECTRONS:         0
  NR OF CONFIG:              36

   Specific data for JOBIPH file JOBIPH10
   -------------------------------------

   Header from SEWARD:
                            O2, D2h symmetry, aug-cc-pVTZ                      
        Integrals generated by Gateway/Seward, Wed Apr 16 15:48:24 2025        

   CASSCF title (first line only):
       O2, 3B1g 6S                                                             

  STATE IRREP:                4
  SPIN MULTIPLICITY:          3
  ACTIVE ELECTRONS:          12
  MAX RAS1 HOLES:             0
  MAX RAS3 ELECTRONS:         0
  NR OF CONFIG:              48

   Specific data for JOBIPH file JOBIPH11
   -------------------------------------

   Header from SEWARD:
                            O2, D2h symmetry, aug-cc-pVTZ                      
        Integrals generated by Gateway/Seward, Wed Apr 16 15:48:24 2025        

   CASSCF title (first line only):
       O2, 5B1g 1S                                                             

  STATE IRREP:                4
  SPIN MULTIPLICITY:          5
  ACTIVE ELECTRONS:          12
  MAX RAS1 HOLES:             0
  MAX RAS3 ELECTRONS:         0
  NR OF CONFIG:              12

   Specific data for JOBIPH file JOBIPH12
   -------------------------------------

   Header from SEWARD:
                            O2, D2h symmetry, aug-cc-pVTZ                      
        Integrals generated by Gateway/Seward, Thu Apr 17 11:11:13 2025        

   CASSCF title (first line only):
       O2, 1B1u 3S                                                             

  STATE IRREP:                5
  SPIN MULTIPLICITY:          1
  ACTIVE ELECTRONS:          12
  MAX RAS1 HOLES:             0
  MAX RAS3 ELECTRONS:         0
  NR OF CONFIG:              44

   Specific data for JOBIPH file JOBIPH13
   -------------------------------------

   Header from SEWARD:
                            O2, D2h symmetry, aug-cc-pVTZ                      
        Integrals generated by Gateway/Seward, Wed Apr 16 15:48:24 2025        

   CASSCF title (first line only):
       O2, 3B1u 6S                                                             

  STATE IRREP:                5
  SPIN MULTIPLICITY:          3
  ACTIVE ELECTRONS:          12
  MAX RAS1 HOLES:             0
  MAX RAS3 ELECTRONS:         0
  NR OF CONFIG:              48

   Specific data for JOBIPH file JOBIPH14
   -------------------------------------

   Header from SEWARD:
                            O2, D2h symmetry, aug-cc-pVTZ                      
        Integrals generated by Gateway/Seward, Wed Apr 16 15:48:24 2025        

   CASSCF title (first line only):
       O2, 1B2g 5S                                                             

  STATE IRREP:                6
  SPIN MULTIPLICITY:          1
  ACTIVE ELECTRONS:          12
  MAX RAS1 HOLES:             0
  MAX RAS3 ELECTRONS:         0
  NR OF CONFIG:              40

   Specific data for JOBIPH file JOBIPH15
   -------------------------------------

   Header from SEWARD:
                            O2, D2h symmetry, aug-cc-pVTZ                      
        Integrals generated by Gateway/Seward, Wed Apr 16 15:48:24 2025        

   CASSCF title (first line only):
       O2, 3B2g 6S                                                             

  STATE IRREP:                6
  SPIN MULTIPLICITY:          3
  ACTIVE ELECTRONS:          12
  MAX RAS1 HOLES:             0
  MAX RAS3 ELECTRONS:         0
  NR OF CONFIG:              48

   Specific data for JOBIPH file JOBIPH16
   -------------------------------------

   Header from SEWARD:
                            O2, D2h symmetry, aug-cc-pVTZ                      
        Integrals generated by Gateway/Seward, Wed Apr 16 15:48:24 2025        

   CASSCF title (first line only):
       O2, 5B2g 1S                                                             

  STATE IRREP:                6
  SPIN MULTIPLICITY:          5
  ACTIVE ELECTRONS:          12
  MAX RAS1 HOLES:             0
  MAX RAS3 ELECTRONS:         0
  NR OF CONFIG:               8

   Specific data for JOBIPH file JOBIPH17
   -------------------------------------

   Header from SEWARD:
                            O2, D2h symmetry, aug-cc-pVTZ                      
        Integrals generated by Gateway/Seward, Wed Apr 16 15:48:24 2025        

   CASSCF title (first line only):
       O2, 1B3g 5S                                                             

  STATE IRREP:                7
  SPIN MULTIPLICITY:          1
  ACTIVE ELECTRONS:          12
  MAX RAS1 HOLES:             0
  MAX RAS3 ELECTRONS:         0
  NR OF CONFIG:              40

   Specific data for JOBIPH file JOBIPH18
   -------------------------------------

   Header from SEWARD:
                            O2, D2h symmetry, aug-cc-pVTZ                      
        Integrals generated by Gateway/Seward, Wed Apr 16 15:48:24 2025        

   CASSCF title (first line only):
       O2, 3B3g 6S                                                             

  STATE IRREP:                7
  SPIN MULTIPLICITY:          3
  ACTIVE ELECTRONS:          12
  MAX RAS1 HOLES:             0
  MAX RAS3 ELECTRONS:         0
  NR OF CONFIG:              48

   Specific data for JOBIPH file JOBIPH19
   -------------------------------------

   Header from SEWARD:
                            O2, D2h symmetry, aug-cc-pVTZ                      
        Integrals generated by Gateway/Seward, Wed Apr 16 15:48:24 2025        

   CASSCF title (first line only):
       O2, 5B3g 1S                                                             

  STATE IRREP:                7
  SPIN MULTIPLICITY:          5
  ACTIVE ELECTRONS:          12
  MAX RAS1 HOLES:             0
  MAX RAS3 ELECTRONS:         0
  NR OF CONFIG:               8

   Specific data for JOBIPH file JOBIPH20
   -------------------------------------

   Header from SEWARD:
                            O2, D2h symmetry, aug-cc-pVTZ                      
        Integrals generated by Gateway/Seward, Thu Apr 17 11:11:13 2025        

   CASSCF title (first line only):
       O2, 1Au 5S                                                              

  STATE IRREP:                8
  SPIN MULTIPLICITY:          1
  ACTIVE ELECTRONS:          12
  MAX RAS1 HOLES:             0
  MAX RAS3 ELECTRONS:         0
  NR OF CONFIG:              36

   Specific data for JOBIPH file JOBIPH21
   -------------------------------------

   Header from SEWARD:
                            O2, D2h symmetry, aug-cc-pVTZ                      
        Integrals generated by Gateway/Seward, Wed Apr 16 15:48:24 2025        

   CASSCF title (first line only):
       O2, 3Au 6S                                                              

  STATE IRREP:                8
  SPIN MULTIPLICITY:          3
  ACTIVE ELECTRONS:          12
  MAX RAS1 HOLES:             0
  MAX RAS3 ELECTRONS:         0
  NR OF CONFIG:              48

   Specific data for JOBIPH file JOBIPH22
   -------------------------------------

   Header from SEWARD:
                            O2, D2h symmetry, aug-cc-pVTZ                      
        Integrals generated by Gateway/Seward, Wed Apr 16 15:48:24 2025        

   CASSCF title (first line only):
       O2, 5Au 1S                                                              

  STATE IRREP:                8
  SPIN MULTIPLICITY:          5
  ACTIVE ELECTRONS:          12
  MAX RAS1 HOLES:             0
  MAX RAS3 ELECTRONS:         0
  NR OF CONFIG:              12
 ###############################################################################
 ###############################################################################
 ###                                                                         ###
 ###                                                                         ###
 ###    WARNING: EJOB used when HEFF is available, possible                  ###
 ###    extra interaction between states is ignored!                         ###
 ###                                                                         ###
 ###                                                                         ###
 ###############################################################################
 ###############################################################################

   The following data are common to all the states:
   ------------------------------------------------
   (note: frozen counts as inactive, deleted as secondary)

      Nr of irreps: 8

                 Total     No./Irrep 
      Irrep                  1   2   3   4   5   6   7   8
                            ag b3u b2u b1g b1u b2g b3g  au

      INACTIVE       2       1   0   0   0   1   0   0   0
      ACTIVE         8       2   1   1   0   2   1   1   0
      SECONDARY     82      16  10  10   5  16  10  10   5
      BASIS         92      19  11  11   5  19  11  11   5

      RAS1           0       0   0   0   0   0   0   0   0
      RAS2           8       2   1   1   0   2   1   1   0
      RAS3           0       0   0   0   0   0   0   0   0

        MATRIX ELEMENTS WILL BE COMPUTED FOR THE FOLLOWING ONE-ELECTRON OPERATORS, UNLESS ZERO BY SYMMETRY.
   (Herm=Hermitian, Anti=Antihermitian, Sing=Singlet operator, Trip=Triplet operator)
     MLTPL  0   1 (HERMSING)     MLTPL  1   1 (HERMSING)     MLTPL  1   2 (HERMSING)
     MLTPL  1   3 (HERMSING)     MLTPL  2   1 (HERMSING)     MLTPL  2   2 (HERMSING)
     MLTPL  2   3 (HERMSING)     MLTPL  2   4 (HERMSING)     MLTPL  2   5 (HERMSING)
     MLTPL  2   6 (HERMSING)     VELOCITY   1 (ANTISING)     VELOCITY   2 (ANTISING)
     VELOCITY   3 (ANTISING)     ANGMOM     1 (ANTISING)     ANGMOM     2 (ANTISING)
     ANGMOM     3 (ANTISING)     MLTPV  2   1 (ANTISING)     MLTPV  2   2 (ANTISING)
     MLTPV  2   3 (ANTISING)     MLTPV  2   4 (ANTISING)     MLTPV  2   5 (ANTISING)
     MLTPV  2   6 (ANTISING)

       EIGENSTATES OF A SPIN-FREE HAMILTONIAN WILL BE COMPUTED BASED ON:

  a Hamiltonian matrix assumed to be diagonal with energies read from the wavefunction file(s).

  Nr of states:                   99

   State:        1   2   3   4   5   6   7   8   9  10  11  12  13  14  15  16  17  18  19  20
  JobIph:        1   1   1   1   1   1   1   1   1   1   1   1   2   2   2   3   3   3   4   4
 Root nr:        1   2   3   4   5   6   7   8   9  10  11  12   1   2   3   1   2   3   1   2

   State:       21  22  23  24  25  26  27  28  29  30  31  32  33  34  35  36  37  38  39  40
  JobIph:        4   4   4   5   5   5   5   5   5   6   7   7   7   7   7   8   8   8   8   8
 Root nr:        3   4   5   1   2   3   4   5   6   1   1   2   3   4   5   1   2   3   4   5

   State:       41  42  43  44  45  46  47  48  49  50  51  52  53  54  55  56  57  58  59  60
  JobIph:        8   9  10  10  10  10  10  11  11  11  11  11  11  12  13  13  13  14  14  14
 Root nr:        6   1   1   2   3   4   5   1   2   3   4   5   6   1   1   2   3   1   2   3

   State:       61  62  63  64  65  66  67  68  69  70  71  72  73  74  75  76  77  78  79  80
  JobIph:       14  14  14  15  15  15  15  15  16  16  16  16  16  16  17  18  18  18  18  18
 Root nr:        4   5   6   1   2   3   4   5   1   2   3   4   5   6   1   1   2   3   4   5

   State:       81  82  83  84  85  86  87  88  89  90  91  92  93  94  95  96  97  98  99
  JobIph:       19  19  19  19  19  19  20  21  21  21  21  21  22  22  22  22  22  22  23
 Root nr:        1   2   3   4   5   6   1   1   2   3   4   5   1   2   3   4   5   6   1

  HAMILTONIAN MATRIX FOR THE ORIGINAL STATES:

  Diagonal, with energies
   -149.60895315   -149.60894974   -149.59712230   -149.44751967   -149.44644758
   -149.44644413   -149.44284561   -149.43812006   -149.43811993   -149.37886068
   -149.37417560   -149.31023017   -149.52770035   -149.52769692   -149.51762115
   -149.60895315   -149.60894974   -149.59712230   -149.60304555   -149.44698318
   -149.44229813   -149.44228512   -149.37832499   -149.60305849   -149.52823867
   -149.52355096   -149.52355083   -149.52179919   -149.45959388   -149.60304555
   -149.60304555   -149.44698318   -149.44229813   -149.44228512   -149.37832499
   -149.60305849   -149.52823867   -149.52355096   -149.52355083   -149.52179919
   -149.45959388   -149.60304555   -149.60895315   -149.44644758   -149.44284561
   -149.43811993   -149.37417560   -149.60895667   -149.52770387   -149.52770035
   -149.52234886   -149.51762115   -149.45368145   -149.60895315   -149.44284982
   -149.37890704   -149.37418501   -149.60895315   -149.60894974   -149.59712230
   -149.52770035   -149.52769692   -149.51762115   -149.60305849   -149.44698855
   -149.44231100   -149.44229812   -149.37835719   -149.60304555   -149.52823867
   -149.52355096   -149.52355083   -149.52179919   -149.45959388   -149.60305849
   -149.60305849   -149.44698855   -149.44231100   -149.44229812   -149.37835719
   -149.60304555   -149.52823867   -149.52355096   -149.52355083   -149.52179919
   -149.45959388   -149.60305849   -149.60895667   -149.44645108   -149.44284982
   -149.43812006   -149.37418501   -149.60895315   -149.52770387   -149.52770035
   -149.52234886   -149.51762115   -149.45368145   -149.60895667

      OVERLAP MATRIX FOR THE ORIGINAL STATES:

  Diagonal, with elements
      1.00000000      1.00000000      1.00000000      1.00000000      1.00000000
      1.00000000      1.00000000      1.00000000      1.00000000      1.00000000
      1.00000000      1.00000000      1.00000000      1.00000000      1.00000000
      1.00000000      1.00000000      1.00000000      1.00000000      1.00000000
      1.00000000      1.00000000      1.00000000      1.00000000      1.00000000
      1.00000000      1.00000000      1.00000000      1.00000000      1.00000000
      1.00000000      1.00000000      1.00000000      1.00000000      1.00000000
      1.00000000      1.00000000      1.00000000      1.00000000      1.00000000
      1.00000000      1.00000000      1.00000000      1.00000000      1.00000000
      1.00000000      1.00000000      1.00000000      1.00000000      1.00000000
      1.00000000      1.00000000      1.00000000      1.00000000      1.00000000
      1.00000000      1.00000000      1.00000000      1.00000000      1.00000000
      1.00000000      1.00000000      1.00000000      1.00000000      1.00000000
      1.00000000      1.00000000      1.00000000      1.00000000      1.00000000
      1.00000000      1.00000000      1.00000000      1.00000000      1.00000000
      1.00000000      1.00000000      1.00000000      1.00000000      1.00000000
      1.00000000      1.00000000      1.00000000      1.00000000      1.00000000
      1.00000000      1.00000000      1.00000000      1.00000000      1.00000000
      1.00000000      1.00000000      1.00000000      1.00000000      1.00000000
      1.00000000      1.00000000      1.00000000      1.00000000

::    RASSI State    1     Total energy:    -149.60895314675903
::    RASSI State    2     Total energy:    -149.60894973589524
::    RASSI State    3     Total energy:    -149.59712230383204
::    RASSI State    4     Total energy:    -149.44751967399284
::    RASSI State    5     Total energy:    -149.44644757507905
::    RASSI State    6     Total energy:    -149.44644413092516
::    RASSI State    7     Total energy:    -149.44284561015704
::    RASSI State    8     Total energy:    -149.43812006103818
::    RASSI State    9     Total energy:    -149.43811993194507
::    RASSI State   10     Total energy:    -149.37886068453622
::    RASSI State   11     Total energy:    -149.37417559696564
::    RASSI State   12     Total energy:    -149.31023016509718
::    RASSI State   13     Total energy:    -149.52770035335928
::    RASSI State   14     Total energy:    -149.52769691879962
::    RASSI State   15     Total energy:    -149.51762114836757
::    RASSI State   16     Total energy:    -149.60895314620720
::    RASSI State   17     Total energy:    -149.60894973535480
::    RASSI State   18     Total energy:    -149.59712230384017
::    RASSI State   19     Total energy:    -149.60304554589092
::    RASSI State   20     Total energy:    -149.44698317866127
::    RASSI State   21     Total energy:    -149.44229813369412
::    RASSI State   22     Total energy:    -149.44228511502979
::    RASSI State   23     Total energy:    -149.37832499087435
::    RASSI State   24     Total energy:    -149.60305849146511
::    RASSI State   25     Total energy:    -149.52823867066195
::    RASSI State   26     Total energy:    -149.52355096239083
::    RASSI State   27     Total energy:    -149.52355082947957
::    RASSI State   28     Total energy:    -149.52179919078645
::    RASSI State   29     Total energy:    -149.45959388252132
::    RASSI State   30     Total energy:    -149.60304554638566
::    RASSI State   31     Total energy:    -149.60304554589092
::    RASSI State   32     Total energy:    -149.44698317866130
::    RASSI State   33     Total energy:    -149.44229813369412
::    RASSI State   34     Total energy:    -149.44228511502979
::    RASSI State   35     Total energy:    -149.37832499087426
::    RASSI State   36     Total energy:    -149.60305849146513
::    RASSI State   37     Total energy:    -149.52823867066198
::    RASSI State   38     Total energy:    -149.52355096239086
::    RASSI State   39     Total energy:    -149.52355082947955
::    RASSI State   40     Total energy:    -149.52179919078648
::    RASSI State   41     Total energy:    -149.45959388252129
::    RASSI State   42     Total energy:    -149.60304554638563
::    RASSI State   43     Total energy:    -149.60895314675909
::    RASSI State   44     Total energy:    -149.44644757507908
::    RASSI State   45     Total energy:    -149.44284561015692
::    RASSI State   46     Total energy:    -149.43811993194512
::    RASSI State   47     Total energy:    -149.37417559696567
::    RASSI State   48     Total energy:    -149.60895666647278
::    RASSI State   49     Total energy:    -149.52770386672046
::    RASSI State   50     Total energy:    -149.52770035335925
::    RASSI State   51     Total energy:    -149.52234886167420
::    RASSI State   52     Total energy:    -149.51762114836777
::    RASSI State   53     Total energy:    -149.45368144818201
::    RASSI State   54     Total energy:    -149.60895314620711
::    RASSI State   55     Total energy:    -149.44284982301158
::    RASSI State   56     Total energy:    -149.37890703557343
::    RASSI State   57     Total energy:    -149.37418500812504
::    RASSI State   58     Total energy:    -149.60895314657506
::    RASSI State   59     Total energy:    -149.60894973571504
::    RASSI State   60     Total energy:    -149.59712230383479
::    RASSI State   61     Total energy:    -149.52770035421645
::    RASSI State   62     Total energy:    -149.52769691964829
::    RASSI State   63     Total energy:    -149.51762114837572
::    RASSI State   64     Total energy:    -149.60305849113496
::    RASSI State   65     Total energy:    -149.44698855354568
::    RASSI State   66     Total energy:    -149.44231099832868
::    RASSI State   67     Total energy:    -149.44229811702638
::    RASSI State   68     Total energy:    -149.37835719383085
::    RASSI State   69     Total energy:    -149.60304554605577
::    RASSI State   70     Total energy:    -149.52823867079107
::    RASSI State   71     Total energy:    -149.52355096239083
::    RASSI State   72     Total energy:    -149.52355082970607
::    RASSI State   73     Total energy:    -149.52179919090224
::    RASSI State   74     Total energy:    -149.45959388266698
::    RASSI State   75     Total energy:    -149.60305849212529
::    RASSI State   76     Total energy:    -149.60305849113493
::    RASSI State   77     Total energy:    -149.44698855354568
::    RASSI State   78     Total energy:    -149.44231099832868
::    RASSI State   79     Total energy:    -149.44229811702644
::    RASSI State   80     Total energy:    -149.37835719383085
::    RASSI State   81     Total energy:    -149.60304554605580
::    RASSI State   82     Total energy:    -149.52823867079113
::    RASSI State   83     Total energy:    -149.52355096239083
::    RASSI State   84     Total energy:    -149.52355082970601
::    RASSI State   85     Total energy:    -149.52179919090227
::    RASSI State   86     Total energy:    -149.45959388266695
::    RASSI State   87     Total energy:    -149.60305849212529
::    RASSI State   88     Total energy:    -149.60895666664362
::    RASSI State   89     Total energy:    -149.44645107699961
::    RASSI State   90     Total energy:    -149.44284982301144
::    RASSI State   91     Total energy:    -149.43812006098221
::    RASSI State   92     Total energy:    -149.37418500812507
::    RASSI State   93     Total energy:    -149.60895314657512
::    RASSI State   94     Total energy:    -149.52770386588116
::    RASSI State   95     Total energy:    -149.52770035421634
::    RASSI State   96     Total energy:    -149.52234886168102
::    RASSI State   97     Total energy:    -149.51762114837570
::    RASSI State   98     Total energy:    -149.45368144819508
::    RASSI State   99     Total energy:    -149.60895666613104



      ****************************************************************************************************
      *                                                                                                  *
      *                                         Spin-free section                                        *
      *                                                                                                  *
      *                 Note: index according to input order, order according to energy.                 *
      *                                                                                                  *
      ****************************************************************************************************



  SPIN-FREE ENERGIES:
  (Shifted by EMIN (a.u.) =       -149.6089566666)

 SF State       Relative EMIN(au)   Rel lowest level(eV)    D:o, cm**(-1)      L_eff   Abs_M

    88             0.0000000000        0.0000000000              0.0000         1.0     0.0
    48             0.0000000002        0.0000000046              0.0000         1.0     0.0
    99             0.0000000005        0.0000000139              0.0001         1.0     0.0
    43             0.0000035199        0.0000957809              0.7725         2.0     2.0
     1             0.0000035199        0.0000957809              0.7725         2.0     2.0
    93             0.0000035201        0.0000957859              0.7726         2.0     2.0
    58             0.0000035201        0.0000957859              0.7726         2.0     2.0
    16             0.0000035204        0.0000957960              0.7726         2.0     2.0
    54             0.0000035204        0.0000957960              0.7726         2.0     2.0
     2             0.0000069307        0.0001885953              1.5211         1.0     0.0
    59             0.0000069309        0.0001886002              1.5212         1.0     0.0
    17             0.0000069313        0.0001886100              1.5212         1.0     0.0
    75             0.0058981745        0.1604975050           1294.4997         2.0     1.0
    87             0.0058981745        0.1604975050           1294.4997         2.0     1.0
    36             0.0058981752        0.1604975229           1294.4998         2.0     1.0
    24             0.0058981752        0.1604975229           1294.4998         2.0     1.0
    64             0.0058981755        0.1604975319           1294.4999         2.0     1.0
    76             0.0058981755        0.1604975319           1294.4999         2.0     1.0
    30             0.0059111203        0.1608497765           1297.3409         1.0     1.0
    42             0.0059111203        0.1608497765           1297.3409         1.0     1.0
    81             0.0059111206        0.1608497855           1297.3410         1.0     1.0
    69             0.0059111206        0.1608497855           1297.3410         1.0     1.0
    19             0.0059111208        0.1608497899           1297.3410         1.0     1.0
    31             0.0059111208        0.1608497899           1297.3410         1.0     1.0
    18             0.0118343628        0.3220294172           2597.3424         1.6     0.0
    60             0.0118343628        0.3220294174           2597.3424         1.6     0.0
     3             0.0118343628        0.3220294174           2597.3424         1.6     0.0
    82             0.0807179959        2.1964485621          17715.5524         2.4     1.0
    70             0.0807179959        2.1964485621          17715.5524         2.4     1.0
    37             0.0807179960        2.1964485657          17715.5524         2.4     1.0
    25             0.0807179960        2.1964485657          17715.5524         2.4     1.0
    49             0.0812527999        2.2110013223          17832.9283         2.0     0.0
    94             0.0812528008        2.2110013451          17832.9285         2.0     0.0
    61             0.0812563124        2.2110969024          17833.6992         2.7     2.0
    95             0.0812563124        2.2110969024          17833.6992         2.7     2.0
    13             0.0812563133        2.2110969257          17833.6994         2.7     2.0
    50             0.0812563133        2.2110969257          17833.6994         2.7     2.0
    62             0.0812597470        2.2111903617          17834.4530         2.0     0.0
    14             0.0812597478        2.2111903848          17834.4532         2.0     0.0
    38             0.0854057043        2.3240076060          18744.3855         1.6     1.0
    26             0.0854057043        2.3240076060          18744.3855         1.6     1.0
    71             0.0854057043        2.3240076060          18744.3855         1.6     1.0
    83             0.0854057043        2.3240076060          18744.3855         1.6     1.0
    72             0.0854058369        2.3240112166          18744.4146         3.0     3.0
    84             0.0854058369        2.3240112166          18744.4146         3.0     3.0
    27             0.0854058372        2.3240112227          18744.4146         3.0     3.0
    39             0.0854058372        2.3240112227          18744.4146         3.0     3.0
    96             0.0866078050        2.3567184328          19008.2161         2.4     0.0
    51             0.0866078050        2.3567184329          19008.2161         2.4     0.0
    85             0.0871574757        2.3716757366          19128.8549         2.4     1.0
    73             0.0871574757        2.3716757366          19128.8549         2.4     1.0
    40             0.0871574759        2.3716757398          19128.8549         2.4     1.0
    28             0.0871574759        2.3716757398          19128.8549         2.4     1.0
    63             0.0913355183        2.4853660656          20045.8292         2.4     2.0
    97             0.0913355183        2.4853660656          20045.8292         2.4     2.0
    52             0.0913355183        2.4853660658          20045.8292         2.4     2.0
    15             0.0913355183        2.4853660658          20045.8292         2.4     2.0
    74             0.1493627840        4.0643684056          32781.3420         1.0     1.0
    86             0.1493627840        4.0643684056          32781.3420         1.0     1.0
    29             0.1493627841        4.0643684095          32781.3420         1.0     1.0
    41             0.1493627841        4.0643684095          32781.3420         1.0     1.0
    98             0.1552752184        4.2252539436          34078.9713         1.0     0.0
    53             0.1552752185        4.2252539440          34078.9713         1.0     0.0
     4             0.1614369927        4.3929243614          35431.3245         3.0     0.0
    65             0.1619681131        4.4073768850          35547.8919         3.8     1.0
    77             0.1619681131        4.4073768850          35547.8919         3.8     1.0
    32             0.1619734880        4.4075231431          35549.0716         2.0     1.0
    20             0.1619734880        4.4075231431          35549.0716         2.0     1.0
    89             0.1625055896        4.4220023669          35665.8544         2.7     0.0
    44             0.1625090916        4.4220976590          35666.6230         3.3     2.0
     5             0.1625090916        4.4220976590          35666.6230         3.3     2.0
     6             0.1625125357        4.4221913792          35667.3789         2.7     0.0
    55             0.1661068436        4.5199974802          36456.2383         3.0     2.0
    90             0.1661068436        4.5199974802          36456.2383         3.0     2.0
     7             0.1661110565        4.5201121178          36457.1629         3.0     2.0
    45             0.1661110565        4.5201121178          36457.1629         3.0     2.0
    66             0.1666456683        4.5346596467          36574.4966         4.0     3.0
    78             0.1666456683        4.5346596467          36574.4966         4.0     3.0
    21             0.1666585329        4.5350097113          36577.3201         2.4     1.0
    33             0.1666585329        4.5350097113          36577.3201         2.4     1.0
    79             0.1666585496        4.5350101648          36577.3237         2.4     1.0
    67             0.1666585496        4.5350101648          36577.3237         2.4     1.0
    22             0.1666715516        4.5353639672          36580.1773         3.0     3.0
    34             0.1666715516        4.5353639672          36580.1773         3.0     3.0
     8             0.1708366056        4.6487008601          37494.3010         1.6     0.0
    91             0.1708366057        4.6487008616          37494.3011         1.6     0.0
    46             0.1708367347        4.6487043729          37494.3294         4.0     4.0
     9             0.1708367347        4.6487043729          37494.3294         4.0     4.0
    56             0.2300496311        6.2599693668          50490.0580         2.0     0.0
    10             0.2300959821        6.2612306428          50500.2309         2.0     0.0
    80             0.2305994728        6.2749313228          50610.7343         2.0     1.0
    68             0.2305994728        6.2749313228          50610.7343         2.0     1.0
    23             0.2306316758        6.2758076099          50617.8020         2.0     1.0
    35             0.2306316758        6.2758076099          50617.8020         2.0     1.0
    92             0.2347716585        6.3884622796          51526.4232         2.0     2.0
    57             0.2347716585        6.3884622796          51526.4232         2.0     2.0
    47             0.2347810697        6.3887183703          51528.4887         2.0     2.0
    11             0.2347810697        6.3887183703          51528.4887         2.0     2.0
    12             0.2987265015        8.1287622155          65562.8888         0.0     0.0

++ Dipole transition strengths (spin-free states):
   -----------------------------------------------
     for osc. strength at least  1.00000000E-05

  ( Max oscillator strength is only    2.5872296708239359E-009 )
--

++ Velocity transition strengths (spin-free states):
   -------------------------------------------------
     for osc. strength at least  1.00000000E-05

      From   To        Osc. strength     Einstein coefficients Ax, Ay, Az (sec-1)    Total A (sec-1)
     -----------------------------------------------------------------------------------------------
        75   30       8.63176156E-05  0.00000000E+00  0.00000000E+00  4.64797790E-04  4.64797790E-04
        87   42       8.63176153E-05  0.00000000E+00  0.00000000E+00  4.64797790E-04  4.64797790E-04
        36   81       8.63191840E-05  0.00000000E+00  0.00000000E+00  4.64782518E-04  4.64782518E-04
        24   69       8.63191840E-05  0.00000000E+00  0.00000000E+00  4.64782518E-04  4.64782518E-04
        64   19       8.63199691E-05  0.00000000E+00  0.00000000E+00  4.64774875E-04  4.64774875E-04
        76   31       8.63199693E-05  0.00000000E+00  0.00000000E+00  4.64774875E-04  4.64774875E-04
        65   20       1.37073917E-04  0.00000000E+00  0.00000000E+00  1.27234230E-04  1.27234230E-04
        77   32       1.37073918E-04  0.00000000E+00  0.00000000E+00  1.27234229E-04  1.27234229E-04
        66   22       9.23028350E-05  0.00000000E+00  0.00000000E+00  1.98685045E-03  1.98685045E-03
        78   34       9.23028350E-05  0.00000000E+00  0.00000000E+00  1.98685044E-03  1.98685044E-03
        56   10       4.98613196E-05  0.00000000E+00  0.00000000E+00  3.44186288E-03  3.44186288E-03
        80   35       1.58370641E-05  0.00000000E+00  0.00000000E+00  5.27687796E-04  5.27687796E-04
        68   23       1.58370641E-05  0.00000000E+00  0.00000000E+00  5.27687795E-04  5.27687795E-04
     -----------------------------------------------------------------------------------------------
--

++ Length and velocity gauge comparison (spin-free states):
   --------------------------------------------------------

 --------------------------------------------------
 A comparison between the dipole oscillator strengths in 
 length and velocity gauge will be performed

     All dipole oscillator differences above the tolerance of   1.00000000E-01  will be printed 

 Due to basis set deficiency these oscillator may be problematic 

 The tolerance is defined as ABS(1-O_l/O_v) 
 O_l : dipole oscillator strength in length gauge
 O_p : dipole oscillator strength in velocity gauge
 --------------------------------------------------

  Problematic transitions have been found

      From   To       Difference (%) Osc. st. (len.) Osc. st. (vel.)
     ---------------------------------------------------------------
        75   30      --------------- below threshold  8.63176156E-05
        87   42      --------------- below threshold  8.63176153E-05
        36   81      --------------- below threshold  8.63191840E-05
        24   69      --------------- below threshold  8.63191840E-05
        64   19      --------------- below threshold  8.63199691E-05
        76   31      --------------- below threshold  8.63199693E-05
        65   20      --------------- below threshold  1.37073917E-04
        77   32      --------------- below threshold  1.37073918E-04
        66   22      --------------- below threshold  9.23028350E-05
        78   34      --------------- below threshold  9.23028350E-05
        56   10      --------------- below threshold  4.98613196E-05
        80   35      --------------- below threshold  1.58370641E-05
        68   23      --------------- below threshold  1.58370641E-05
     ---------------------------------------------------------------

 Number of problematic transitions =                    13

--

 Electric-dipole - electric-octupole not included
 Electric-dipole - magnetic-quadrupole not included


      ****************************************************************************************************
      *                                                                                                  *
      *                                    Special properties section                                    *
      *                                                                                                  *
      ****************************************************************************************************


++ I/O STATISTICS
 
  I. General I/O information
  - - - - - - - - - - - - - - - - - - - - - - - - - - - - - - - - - - - - - - - - - - -
  Unit  Name          Flsize      Write/Read            MBytes           Write/Read
                      (MBytes)       Calls              In/Out           Time, sec.
  - - - - - - - - - - - - - - - - - - - - - - - - - - - - - - - - - - - - - - - - - - -
   1  RUNFILE           0.99 .     266/  262865 .      2.5/   1901.6 .       0/       0
   2  ANNI              0.00 .       0/       0 .      0.0/      0.0 .       0/       0
   3  ONEINT            1.54 .       0/  126040 .      0.0/ 152831.4 .       0/      18
   4  JOBIPH            1.52 .       0/     651 .      0.0/      1.5 .       0/       0
   5  JOBIPH01          1.22 .       0/     219 .      0.0/      1.3 .       0/       0
   6  JOBIPH02          1.22 .       0/     219 .      0.0/      1.3 .       0/       0
   7  JOBIPH03          1.28 .       0/     315 .      0.0/      1.4 .       0/       0
   8  JOBIPH04          1.32 .       0/     363 .      0.0/      1.4 .       0/       0
   9  JOBIPH05          1.15 .       0/     123 .      0.0/      1.3 .       0/       0
  10  JOBIPH06          1.28 .       0/     315 .      0.0/      1.4 .       0/       0
  11  JOBIPH07          1.32 .       0/     363 .      0.0/      1.4 .       0/       0
  12  JOBIPH08          1.15 .       0/     123 .      0.0/      1.3 .       0/       0
  13  JOBIPH09          1.28 .       0/     315 .      0.0/      1.4 .       0/       0
  14  JOBIPH10          1.32 .       0/     363 .      0.0/      1.4 .       0/       0
  15  JOBIPH11          1.15 .       0/     123 .      0.0/      1.3 .       0/       0
  16  JOBIPH12          1.22 .       0/     219 .      0.0/      1.3 .       0/       0
  17  JOBIPH13          1.32 .       0/     363 .      0.0/      1.4 .       0/       0
  18  JOBIPH14          1.28 .       0/     315 .      0.0/      1.4 .       0/       0
  19  JOBIPH15          1.32 .       0/     363 .      0.0/      1.4 .       0/       0
  20  JOBIPH16          1.15 .       0/     123 .      0.0/      1.3 .       0/       0
  21  JOBIPH17          1.28 .       0/     315 .      0.0/      1.4 .       0/       0
  22  JOBIPH18          1.32 .       0/     363 .      0.0/      1.4 .       0/       0
  23  JOBIPH19          1.15 .       0/     123 .      0.0/      1.3 .       0/       0
  24  JOBIPH20          1.28 .       0/     315 .      0.0/      1.4 .       0/       0
  25  JOBIPH21          1.32 .       0/     363 .      0.0/      1.4 .       0/       0
  26  JOBIPH22          1.15 .       0/     123 .      0.0/      1.3 .       0/       0
  - - - - - - - - - - - - - - - - - - - - - - - - - - - - - - - - - - - - - - - - - - -
   *  TOTAL            31.50 .     266/  395382 .      2.5/ 154764.1 .       0/      18
  - - - - - - - - - - - - - - - - - - - - - - - - - - - - - - - - - - - - - - - - - - -
 
  II. I/O Access Patterns
  - - - - - - - - - - - - - - - - - - - -
  Unit  Name               % of random
                         Write/Read calls
  - - - - - - - - - - - - - - - - - - - -
   1  RUNFILE             28.6/  11.1
   2  ANNI                 0.0/   0.0
   3  ONEINT               0.0/  99.3
   4  JOBIPH               0.0/  51.9
   5  JOBIPH01             0.0/  55.7
   6  JOBIPH02             0.0/  55.7
   7  JOBIPH03             0.0/  54.0
   8  JOBIPH04             0.0/  53.4
   9  JOBIPH05             0.0/  60.2
  10  JOBIPH06             0.0/  54.0
  11  JOBIPH07             0.0/  53.4
  12  JOBIPH08             0.0/  60.2
  13  JOBIPH09             0.0/  54.0
  14  JOBIPH10             0.0/  53.4
  15  JOBIPH11             0.0/  60.2
  16  JOBIPH12             0.0/  55.7
  17  JOBIPH13             0.0/  53.4
  18  JOBIPH14             0.0/  54.0
  19  JOBIPH15             0.0/  53.4
  20  JOBIPH16             0.0/  60.2
  21  JOBIPH17             0.0/  54.0
  22  JOBIPH18             0.0/  53.4
  23  JOBIPH19             0.0/  60.2
  24  JOBIPH20             0.0/  54.0
  25  JOBIPH21             0.0/  53.4
  26  JOBIPH22             0.0/  60.2
  - - - - - - - - - - - - - - - - - - - -
--
--- Stop Module: rassi at Thu Apr 17 11:12:03 2025 /rc=_RC_ALL_IS_WELL_ ---
--- Module rassi spent 40 seconds ---

.##################.
.# Happy landing! #.
.##################.

    Timing: Wall=40.20 User=19.93 System=19.73
