   This run of MOLCAS is using the pymolcas driver

                             OPE
                             OPE          NMOL  CASOP  ENMOLC A   SO
                 OPE        NMOLC        AS  OP EN  MO LC     AS  OP
                OPENM       OL CA        SO  PE NM  OL CA     SOP EN
                OP EN      MO   LC       AS  OP ENMOL  CASO   PENMOL
                OP  EN     MO   LC       AS  OP EN     MO     LC ASO
               OP   E  NMOL  C  AS       OP  EN MO     LC     AS  OP
               OP  E   NMO   LC AS        OPEN  MO     LCASOP EN   M
               O  PEN   MO  LCA  SO
            OPE   NMO   L   CAS    OP
        OPENMOL  CASOP     ENMOL   CASOPE
     OPENMOLCA   SOPENMOLCASOPEN   MOLCASOPE
    OPENMOLCAS   OP           EN   MOL    CAS
    OPENMOLCAS       OP  ENM        O     LCA
    OPENMOLCAS    OPEN  MOLCASO     P  E  NMO
    OPENMOLCAS     OP               E  N  MOL
    OPENMOLCA   SO           PENM   O  L  CAS    OPEN    MO    LCAS
    OPENMOLCA   SOP           ENM   O  L  CAS   OP  EN  MOLC  AS   O
    OPENMOLCA   SOPE           NM      O  LCA   S      OP  EN MO
    OPENMOLC                AS         O  PEN   M      OL  CA  SOPE
    OPENMO        LCASOPE  NMOL        C  ASO   P      ENMOLC     AS
    OPE     NMO      LCA  SO     P     E   NM   OL  CA SO  PE N   MO
          OPENMOLCA            SOPE   NMO        LCAS  O    P  ENMO
     OPENMOLCASOPENMOLCASOPENMOLCASOPENMOLCA
        OPENMOLCASOPENMOLCASOPENMOLCASOPE
            OPENMOLCASOPENMOLCASOPENM
               OPENMOLCASOPENMOLCA        version: 25.02
                   OPENMOLCASO
                       OPE                tag: 92-gf4b470f0a

 OpenMolcas is free software; you can redistribute it and/or modify it
 under the terms of the GNU Lesser General Public License version 2.1.
 OpenMolcas is distributed in the hope that it will be useful, but it
 is provided "as is" and without any express or implied warranties.
 For more details see the full text of the license in the file
 LICENSE or in <http://www.gnu.org/licenses/>.

                 Copyright (C) The OpenMolcas Authors
           For the author list and the recommended citation,
                   consult the file CONTRIBUTORS.md

           *************************************************
           * pymolcas version py2.29                       *
           *   build 2ba4516c4d154a59cba941070ba63e2c      *
           *   (after the EMIL interpreter by V. Veryazov) *
           *************************************************

configuration info
------------------
Host name: iftia91.univ.gda.pl (Linux)
C Compiler ID: GNU
C flags: -std=gnu99
Fortran Compiler ID: GNU
Fortran flags: -cpp -fdefault-integer-8 -fmax-stack-var-size=1048576
Definitions: _MOLCAS_;_I8_;_LINUX_
Parallel: OFF (GA=OFF)


   --------------------------------------------------------------------
  |
  |           Project: O2
  |    Submitted from: /scratch/tecumseh/WorkSpace/O2.3.0000
  |      Scratch area: /scratch/tecumseh/WorkSpace/O2.3.0000
  |   Save outputs to: WORKDIR
  |            Molcas: /home/tecumseh/program/OpenMolcas/build
  |
  | Scratch area is NOT empty
  |
  |    MOLCAS_DRIVER = /home/tecumseh/program/OpenMolcas/build/pymolcas
  |    MOLCAS_NPROCS = 1
  |    MOLCAS_SOURCE = /home/tecumseh/program/OpenMolcas/OpenMolcas
  | MOLCAS_STRUCTURE = 0
  |
   --------------------------------------------------------------------

++ ---------   Input file   ---------

>>> COPY $dir/vectors/$Project.$R.1Ag-12S.JobIph $WorkDir/JOBIPH

>>> COPY $dir/vectors/$Project.$R.3Ag-3S.JobIph $WorkDir/JOBIPH01

>>> COPY $dir/vectors/$Project.$R.5Ag-3S.JobIph $WorkDir/JOBIPH02

>>> COPY $dir/vectors/$Project.$R.1B3u-5S.JobIph $WorkDir/JOBIPH03

>>> COPY $dir/vectors/$Project.$R.3B3u-6S.JobIph $WorkDir/JOBIPH04

>>> COPY $dir/vectors/$Project.$R.5B3u-1S.JobIph $WorkDir/JOBIPH05

>>> COPY $dir/vectors/$Project.$R.1B2u-5S.JobIph $WorkDir/JOBIPH06

>>> COPY $dir/vectors/$Project.$R.3B2u-6S.JobIph $WorkDir/JOBIPH07

>>> COPY $dir/vectors/$Project.$R.5B2u-1S.JobIph $WorkDir/JOBIPH08

>>> COPY $dir/vectors/$Project.$R.1B1g-5S.JobIph $WorkDir/JOBIPH09

>>> COPY $dir/vectors/$Project.$R.3B1g-6S.JobIph $WorkDir/JOBIPH10

>>> COPY $dir/vectors/$Project.$R.5B1g-1S.JobIph $WorkDir/JOBIPH11

>>> COPY $dir/vectors/$Project.$R.1B1u-3S.JobIph $WorkDir/JOBIPH12

>>> COPY $dir/vectors/$Project.$R.3B1u-6S.JobIph $WorkDir/JOBIPH13

>>> COPY $dir/vectors/$Project.$R.1B2g-5S.JobIph $WorkDir/JOBIPH14

>>> COPY $dir/vectors/$Project.$R.3B2g-6S.JobIph $WorkDir/JOBIPH15

>>> COPY $dir/vectors/$Project.$R.5B2g-1S.JobIph $WorkDir/JOBIPH16

>>> COPY $dir/vectors/$Project.$R.1B3g-5S.JobIph $WorkDir/JOBIPH17

>>> COPY $dir/vectors/$Project.$R.3B3g-6S.JobIph $WorkDir/JOBIPH18

>>> COPY $dir/vectors/$Project.$R.5B3g-1S.JobIph $WorkDir/JOBIPH19

>>> COPY $dir/vectors/$Project.$R.1Au-5S.JobIph $WorkDir/JOBIPH20

>>> COPY $dir/vectors/$Project.$R.3Au-6S.JobIph $WorkDir/JOBIPH21

>>> COPY $dir/vectors/$Project.$R.5Au-1S.JobIph $WorkDir/JOBIPH22

&RASSI

OMEGa
NROF=23 12 3 3 5 6 1 5 6 1 5 6 1 3 6 5 6 1 5 6 1 5 6 1
1 2 3 4 5 6 7 8 9 10 11 12
1 2 3
1 2 3
1 2 3 4 5
1 2 3 4 5 6
1
1 2 3 4 5
1 2 3 4 5 6
1
1 2 3 4 5
1 2 3 4 5 6
1
1 2 3
1 2 3 4 5 6
1 2 3 4 5
1 2 3 4 5 6
1
1 2 3 4 5
1 2 3 4 5 6
1
1 2 3 4 5
1 2 3 4 5 6
1
EJOB

-- ----------------------------------

>>> COPY /home/tecumseh/project/molecule/O2/OpenMolcas/vectors/O2.3.0000.1Ag-12S.JobIph /scratch/tecumseh/WorkSpace/O2.3.0000/JOBIPH

>>> COPY /home/tecumseh/project/molecule/O2/OpenMolcas/vectors/O2.3.0000.3Ag-3S.JobIph /scratch/tecumseh/WorkSpace/O2.3.0000/JOBIPH01

>>> COPY /home/tecumseh/project/molecule/O2/OpenMolcas/vectors/O2.3.0000.5Ag-3S.JobIph /scratch/tecumseh/WorkSpace/O2.3.0000/JOBIPH02

>>> COPY /home/tecumseh/project/molecule/O2/OpenMolcas/vectors/O2.3.0000.1B3u-5S.JobIph /scratch/tecumseh/WorkSpace/O2.3.0000/JOBIPH03

>>> COPY /home/tecumseh/project/molecule/O2/OpenMolcas/vectors/O2.3.0000.3B3u-6S.JobIph /scratch/tecumseh/WorkSpace/O2.3.0000/JOBIPH04

>>> COPY /home/tecumseh/project/molecule/O2/OpenMolcas/vectors/O2.3.0000.5B3u-1S.JobIph /scratch/tecumseh/WorkSpace/O2.3.0000/JOBIPH05

>>> COPY /home/tecumseh/project/molecule/O2/OpenMolcas/vectors/O2.3.0000.1B2u-5S.JobIph /scratch/tecumseh/WorkSpace/O2.3.0000/JOBIPH06

>>> COPY /home/tecumseh/project/molecule/O2/OpenMolcas/vectors/O2.3.0000.3B2u-6S.JobIph /scratch/tecumseh/WorkSpace/O2.3.0000/JOBIPH07

>>> COPY /home/tecumseh/project/molecule/O2/OpenMolcas/vectors/O2.3.0000.5B2u-1S.JobIph /scratch/tecumseh/WorkSpace/O2.3.0000/JOBIPH08

>>> COPY /home/tecumseh/project/molecule/O2/OpenMolcas/vectors/O2.3.0000.1B1g-5S.JobIph /scratch/tecumseh/WorkSpace/O2.3.0000/JOBIPH09

>>> COPY /home/tecumseh/project/molecule/O2/OpenMolcas/vectors/O2.3.0000.3B1g-6S.JobIph /scratch/tecumseh/WorkSpace/O2.3.0000/JOBIPH10

>>> COPY /home/tecumseh/project/molecule/O2/OpenMolcas/vectors/O2.3.0000.5B1g-1S.JobIph /scratch/tecumseh/WorkSpace/O2.3.0000/JOBIPH11

>>> COPY /home/tecumseh/project/molecule/O2/OpenMolcas/vectors/O2.3.0000.1B1u-3S.JobIph /scratch/tecumseh/WorkSpace/O2.3.0000/JOBIPH12

>>> COPY /home/tecumseh/project/molecule/O2/OpenMolcas/vectors/O2.3.0000.3B1u-6S.JobIph /scratch/tecumseh/WorkSpace/O2.3.0000/JOBIPH13

>>> COPY /home/tecumseh/project/molecule/O2/OpenMolcas/vectors/O2.3.0000.1B2g-5S.JobIph /scratch/tecumseh/WorkSpace/O2.3.0000/JOBIPH14

>>> COPY /home/tecumseh/project/molecule/O2/OpenMolcas/vectors/O2.3.0000.3B2g-6S.JobIph /scratch/tecumseh/WorkSpace/O2.3.0000/JOBIPH15

>>> COPY /home/tecumseh/project/molecule/O2/OpenMolcas/vectors/O2.3.0000.5B2g-1S.JobIph /scratch/tecumseh/WorkSpace/O2.3.0000/JOBIPH16

>>> COPY /home/tecumseh/project/molecule/O2/OpenMolcas/vectors/O2.3.0000.1B3g-5S.JobIph /scratch/tecumseh/WorkSpace/O2.3.0000/JOBIPH17

>>> COPY /home/tecumseh/project/molecule/O2/OpenMolcas/vectors/O2.3.0000.3B3g-6S.JobIph /scratch/tecumseh/WorkSpace/O2.3.0000/JOBIPH18

>>> COPY /home/tecumseh/project/molecule/O2/OpenMolcas/vectors/O2.3.0000.5B3g-1S.JobIph /scratch/tecumseh/WorkSpace/O2.3.0000/JOBIPH19

>>> COPY /home/tecumseh/project/molecule/O2/OpenMolcas/vectors/O2.3.0000.1Au-5S.JobIph /scratch/tecumseh/WorkSpace/O2.3.0000/JOBIPH20

>>> COPY /home/tecumseh/project/molecule/O2/OpenMolcas/vectors/O2.3.0000.3Au-6S.JobIph /scratch/tecumseh/WorkSpace/O2.3.0000/JOBIPH21

>>> COPY /home/tecumseh/project/molecule/O2/OpenMolcas/vectors/O2.3.0000.5Au-1S.JobIph /scratch/tecumseh/WorkSpace/O2.3.0000/JOBIPH22

--- Start Module: rassi at Thu Apr 17 11:10:32 2025 ---

()()()()()()()()()()()()()()()()()()()()()()()()()()()()()()()()()()()()()()()()()()()()()()()()()()

                                               &RASSI

                                   only a single process is used
                       available to each process: 2.0 GB of memory, 1 thread?
                                            pid: 299737
()()()()()()()()()()()()()()()()()()()()()()()()()()()()()()()()()()()()()()()()()()()()()()()()()()


      ********************************************************************************
      *                                                                              *
      *                             General data section                             *
      *                                                                              *
      ********************************************************************************

   Specific data for JOBIPH file JOBIPH
   -------------------------------------

   Header from SEWARD:
                            O2, D2h symmetry, aug-cc-pVTZ                      
        Integrals generated by Gateway/Seward, Wed Apr 16 15:48:21 2025        

   CASSCF title (first line only):
       O2, 1Ag 12S                                                             

  STATE IRREP:                1
  SPIN MULTIPLICITY:          1
  ACTIVE ELECTRONS:          12
  MAX RAS1 HOLES:             0
  MAX RAS3 ELECTRONS:         0
  NR OF CONFIG:              60

   Specific data for JOBIPH file JOBIPH01
   -------------------------------------

   Header from SEWARD:
                            O2, D2h symmetry, aug-cc-pVTZ                      
        Integrals generated by Gateway/Seward, Wed Apr 16 15:48:21 2025        

   CASSCF title (first line only):
       O2, 3Ag  3S                                                             

  STATE IRREP:                1
  SPIN MULTIPLICITY:          3
  ACTIVE ELECTRONS:          12
  MAX RAS1 HOLES:             0
  MAX RAS3 ELECTRONS:         0
  NR OF CONFIG:              42

   Specific data for JOBIPH file JOBIPH02
   -------------------------------------

   Header from SEWARD:
                            O2, D2h symmetry, aug-cc-pVTZ                      
        Integrals generated by Gateway/Seward, Wed Apr 16 15:48:21 2025        

   CASSCF title (first line only):
       O2, 5Ag  3S                                                             

  STATE IRREP:                1
  SPIN MULTIPLICITY:          5
  ACTIVE ELECTRONS:          12
  MAX RAS1 HOLES:             0
  MAX RAS3 ELECTRONS:         0
  NR OF CONFIG:              10

   Specific data for JOBIPH file JOBIPH03
   -------------------------------------

   Header from SEWARD:
                            O2, D2h symmetry, aug-cc-pVTZ                      
        Integrals generated by Gateway/Seward, Thu Apr 17 11:10:23 2025        

   CASSCF title (first line only):
       O2, 1B3u 5S                                                             

  STATE IRREP:                2
  SPIN MULTIPLICITY:          1
  ACTIVE ELECTRONS:          12
  MAX RAS1 HOLES:             0
  MAX RAS3 ELECTRONS:         0
  NR OF CONFIG:              40

   Specific data for JOBIPH file JOBIPH04
   -------------------------------------

   Header from SEWARD:
                            O2, D2h symmetry, aug-cc-pVTZ                      
        Integrals generated by Gateway/Seward, Wed Apr 16 15:48:21 2025        

   CASSCF title (first line only):
       O2, 3B3u 6S                                                             

  STATE IRREP:                2
  SPIN MULTIPLICITY:          3
  ACTIVE ELECTRONS:          12
  MAX RAS1 HOLES:             0
  MAX RAS3 ELECTRONS:         0
  NR OF CONFIG:              48

   Specific data for JOBIPH file JOBIPH05
   -------------------------------------

   Header from SEWARD:
                            O2, D2h symmetry, aug-cc-pVTZ                      
        Integrals generated by Gateway/Seward, Wed Apr 16 15:48:21 2025        

   CASSCF title (first line only):
       O2, 5B3u 1S                                                             

  STATE IRREP:                2
  SPIN MULTIPLICITY:          5
  ACTIVE ELECTRONS:          12
  MAX RAS1 HOLES:             0
  MAX RAS3 ELECTRONS:         0
  NR OF CONFIG:               8

   Specific data for JOBIPH file JOBIPH06
   -------------------------------------

   Header from SEWARD:
                            O2, D2h symmetry, aug-cc-pVTZ                      
        Integrals generated by Gateway/Seward, Thu Apr 17 11:10:23 2025        

   CASSCF title (first line only):
       O2, 1B2u 5S                                                             

  STATE IRREP:                3
  SPIN MULTIPLICITY:          1
  ACTIVE ELECTRONS:          12
  MAX RAS1 HOLES:             0
  MAX RAS3 ELECTRONS:         0
  NR OF CONFIG:              40

   Specific data for JOBIPH file JOBIPH07
   -------------------------------------

   Header from SEWARD:
                            O2, D2h symmetry, aug-cc-pVTZ                      
        Integrals generated by Gateway/Seward, Wed Apr 16 15:48:21 2025        

   CASSCF title (first line only):
       O2, 3B2u 6S                                                             

  STATE IRREP:                3
  SPIN MULTIPLICITY:          3
  ACTIVE ELECTRONS:          12
  MAX RAS1 HOLES:             0
  MAX RAS3 ELECTRONS:         0
  NR OF CONFIG:              48

   Specific data for JOBIPH file JOBIPH08
   -------------------------------------

   Header from SEWARD:
                            O2, D2h symmetry, aug-cc-pVTZ                      
        Integrals generated by Gateway/Seward, Wed Apr 16 15:48:21 2025        

   CASSCF title (first line only):
       O2, 5B2u 1S                                                             

  STATE IRREP:                3
  SPIN MULTIPLICITY:          5
  ACTIVE ELECTRONS:          12
  MAX RAS1 HOLES:             0
  MAX RAS3 ELECTRONS:         0
  NR OF CONFIG:               8

   Specific data for JOBIPH file JOBIPH09
   -------------------------------------

   Header from SEWARD:
                            O2, D2h symmetry, aug-cc-pVTZ                      
        Integrals generated by Gateway/Seward, Wed Apr 16 15:48:21 2025        

   CASSCF title (first line only):
       O2, 1B1g 5S                                                             

  STATE IRREP:                4
  SPIN MULTIPLICITY:          1
  ACTIVE ELECTRONS:          12
  MAX RAS1 HOLES:             0
  MAX RAS3 ELECTRONS:         0
  NR OF CONFIG:              36

   Specific data for JOBIPH file JOBIPH10
   -------------------------------------

   Header from SEWARD:
                            O2, D2h symmetry, aug-cc-pVTZ                      
        Integrals generated by Gateway/Seward, Wed Apr 16 15:48:21 2025        

   CASSCF title (first line only):
       O2, 3B1g 6S                                                             

  STATE IRREP:                4
  SPIN MULTIPLICITY:          3
  ACTIVE ELECTRONS:          12
  MAX RAS1 HOLES:             0
  MAX RAS3 ELECTRONS:         0
  NR OF CONFIG:              48

   Specific data for JOBIPH file JOBIPH11
   -------------------------------------

   Header from SEWARD:
                            O2, D2h symmetry, aug-cc-pVTZ                      
        Integrals generated by Gateway/Seward, Wed Apr 16 15:48:21 2025        

   CASSCF title (first line only):
       O2, 5B1g 1S                                                             

  STATE IRREP:                4
  SPIN MULTIPLICITY:          5
  ACTIVE ELECTRONS:          12
  MAX RAS1 HOLES:             0
  MAX RAS3 ELECTRONS:         0
  NR OF CONFIG:              12

   Specific data for JOBIPH file JOBIPH12
   -------------------------------------

   Header from SEWARD:
                            O2, D2h symmetry, aug-cc-pVTZ                      
        Integrals generated by Gateway/Seward, Thu Apr 17 11:10:23 2025        

   CASSCF title (first line only):
       O2, 1B1u 3S                                                             

  STATE IRREP:                5
  SPIN MULTIPLICITY:          1
  ACTIVE ELECTRONS:          12
  MAX RAS1 HOLES:             0
  MAX RAS3 ELECTRONS:         0
  NR OF CONFIG:              44

   Specific data for JOBIPH file JOBIPH13
   -------------------------------------

   Header from SEWARD:
                            O2, D2h symmetry, aug-cc-pVTZ                      
        Integrals generated by Gateway/Seward, Wed Apr 16 15:48:21 2025        

   CASSCF title (first line only):
       O2, 3B1u 6S                                                             

  STATE IRREP:                5
  SPIN MULTIPLICITY:          3
  ACTIVE ELECTRONS:          12
  MAX RAS1 HOLES:             0
  MAX RAS3 ELECTRONS:         0
  NR OF CONFIG:              48

   Specific data for JOBIPH file JOBIPH14
   -------------------------------------

   Header from SEWARD:
                            O2, D2h symmetry, aug-cc-pVTZ                      
        Integrals generated by Gateway/Seward, Wed Apr 16 15:48:21 2025        

   CASSCF title (first line only):
       O2, 1B2g 5S                                                             

  STATE IRREP:                6
  SPIN MULTIPLICITY:          1
  ACTIVE ELECTRONS:          12
  MAX RAS1 HOLES:             0
  MAX RAS3 ELECTRONS:         0
  NR OF CONFIG:              40

   Specific data for JOBIPH file JOBIPH15
   -------------------------------------

   Header from SEWARD:
                            O2, D2h symmetry, aug-cc-pVTZ                      
        Integrals generated by Gateway/Seward, Wed Apr 16 15:48:21 2025        

   CASSCF title (first line only):
       O2, 3B2g 6S                                                             

  STATE IRREP:                6
  SPIN MULTIPLICITY:          3
  ACTIVE ELECTRONS:          12
  MAX RAS1 HOLES:             0
  MAX RAS3 ELECTRONS:         0
  NR OF CONFIG:              48

   Specific data for JOBIPH file JOBIPH16
   -------------------------------------

   Header from SEWARD:
                            O2, D2h symmetry, aug-cc-pVTZ                      
        Integrals generated by Gateway/Seward, Wed Apr 16 15:48:21 2025        

   CASSCF title (first line only):
       O2, 5B2g 1S                                                             

  STATE IRREP:                6
  SPIN MULTIPLICITY:          5
  ACTIVE ELECTRONS:          12
  MAX RAS1 HOLES:             0
  MAX RAS3 ELECTRONS:         0
  NR OF CONFIG:               8

   Specific data for JOBIPH file JOBIPH17
   -------------------------------------

   Header from SEWARD:
                            O2, D2h symmetry, aug-cc-pVTZ                      
        Integrals generated by Gateway/Seward, Wed Apr 16 15:48:21 2025        

   CASSCF title (first line only):
       O2, 1B3g 5S                                                             

  STATE IRREP:                7
  SPIN MULTIPLICITY:          1
  ACTIVE ELECTRONS:          12
  MAX RAS1 HOLES:             0
  MAX RAS3 ELECTRONS:         0
  NR OF CONFIG:              40

   Specific data for JOBIPH file JOBIPH18
   -------------------------------------

   Header from SEWARD:
                            O2, D2h symmetry, aug-cc-pVTZ                      
        Integrals generated by Gateway/Seward, Wed Apr 16 15:48:21 2025        

   CASSCF title (first line only):
       O2, 3B3g 6S                                                             

  STATE IRREP:                7
  SPIN MULTIPLICITY:          3
  ACTIVE ELECTRONS:          12
  MAX RAS1 HOLES:             0
  MAX RAS3 ELECTRONS:         0
  NR OF CONFIG:              48

   Specific data for JOBIPH file JOBIPH19
   -------------------------------------

   Header from SEWARD:
                            O2, D2h symmetry, aug-cc-pVTZ                      
        Integrals generated by Gateway/Seward, Wed Apr 16 15:48:21 2025        

   CASSCF title (first line only):
       O2, 5B3g 1S                                                             

  STATE IRREP:                7
  SPIN MULTIPLICITY:          5
  ACTIVE ELECTRONS:          12
  MAX RAS1 HOLES:             0
  MAX RAS3 ELECTRONS:         0
  NR OF CONFIG:               8

   Specific data for JOBIPH file JOBIPH20
   -------------------------------------

   Header from SEWARD:
                            O2, D2h symmetry, aug-cc-pVTZ                      
        Integrals generated by Gateway/Seward, Thu Apr 17 11:10:23 2025        

   CASSCF title (first line only):
       O2, 1Au 5S                                                              

  STATE IRREP:                8
  SPIN MULTIPLICITY:          1
  ACTIVE ELECTRONS:          12
  MAX RAS1 HOLES:             0
  MAX RAS3 ELECTRONS:         0
  NR OF CONFIG:              36

   Specific data for JOBIPH file JOBIPH21
   -------------------------------------

   Header from SEWARD:
                            O2, D2h symmetry, aug-cc-pVTZ                      
        Integrals generated by Gateway/Seward, Wed Apr 16 15:48:21 2025        

   CASSCF title (first line only):
       O2, 3Au 6S                                                              

  STATE IRREP:                8
  SPIN MULTIPLICITY:          3
  ACTIVE ELECTRONS:          12
  MAX RAS1 HOLES:             0
  MAX RAS3 ELECTRONS:         0
  NR OF CONFIG:              48

   Specific data for JOBIPH file JOBIPH22
   -------------------------------------

   Header from SEWARD:
                            O2, D2h symmetry, aug-cc-pVTZ                      
        Integrals generated by Gateway/Seward, Wed Apr 16 15:48:21 2025        

   CASSCF title (first line only):
       O2, 5Au 1S                                                              

  STATE IRREP:                8
  SPIN MULTIPLICITY:          5
  ACTIVE ELECTRONS:          12
  MAX RAS1 HOLES:             0
  MAX RAS3 ELECTRONS:         0
  NR OF CONFIG:              12
 ###############################################################################
 ###############################################################################
 ###                                                                         ###
 ###                                                                         ###
 ###    WARNING: EJOB used when HEFF is available, possible                  ###
 ###    extra interaction between states is ignored!                         ###
 ###                                                                         ###
 ###                                                                         ###
 ###############################################################################
 ###############################################################################

   The following data are common to all the states:
   ------------------------------------------------
   (note: frozen counts as inactive, deleted as secondary)

      Nr of irreps: 8

                 Total     No./Irrep 
      Irrep                  1   2   3   4   5   6   7   8
                            ag b3u b2u b1g b1u b2g b3g  au

      INACTIVE       2       1   0   0   0   1   0   0   0
      ACTIVE         8       2   1   1   0   2   1   1   0
      SECONDARY     82      16  10  10   5  16  10  10   5
      BASIS         92      19  11  11   5  19  11  11   5

      RAS1           0       0   0   0   0   0   0   0   0
      RAS2           8       2   1   1   0   2   1   1   0
      RAS3           0       0   0   0   0   0   0   0   0

        MATRIX ELEMENTS WILL BE COMPUTED FOR THE FOLLOWING ONE-ELECTRON OPERATORS, UNLESS ZERO BY SYMMETRY.
   (Herm=Hermitian, Anti=Antihermitian, Sing=Singlet operator, Trip=Triplet operator)
     MLTPL  0   1 (HERMSING)     MLTPL  1   1 (HERMSING)     MLTPL  1   2 (HERMSING)
     MLTPL  1   3 (HERMSING)     MLTPL  2   1 (HERMSING)     MLTPL  2   2 (HERMSING)
     MLTPL  2   3 (HERMSING)     MLTPL  2   4 (HERMSING)     MLTPL  2   5 (HERMSING)
     MLTPL  2   6 (HERMSING)     VELOCITY   1 (ANTISING)     VELOCITY   2 (ANTISING)
     VELOCITY   3 (ANTISING)     ANGMOM     1 (ANTISING)     ANGMOM     2 (ANTISING)
     ANGMOM     3 (ANTISING)     MLTPV  2   1 (ANTISING)     MLTPV  2   2 (ANTISING)
     MLTPV  2   3 (ANTISING)     MLTPV  2   4 (ANTISING)     MLTPV  2   5 (ANTISING)
     MLTPV  2   6 (ANTISING)

       EIGENSTATES OF A SPIN-FREE HAMILTONIAN WILL BE COMPUTED BASED ON:

  a Hamiltonian matrix assumed to be diagonal with energies read from the wavefunction file(s).

  Nr of states:                   99

   State:        1   2   3   4   5   6   7   8   9  10  11  12  13  14  15  16  17  18  19  20
  JobIph:        1   1   1   1   1   1   1   1   1   1   1   1   2   2   2   3   3   3   4   4
 Root nr:        1   2   3   4   5   6   7   8   9  10  11  12   1   2   3   1   2   3   1   2

   State:       21  22  23  24  25  26  27  28  29  30  31  32  33  34  35  36  37  38  39  40
  JobIph:        4   4   4   5   5   5   5   5   5   6   7   7   7   7   7   8   8   8   8   8
 Root nr:        3   4   5   1   2   3   4   5   6   1   1   2   3   4   5   1   2   3   4   5

   State:       41  42  43  44  45  46  47  48  49  50  51  52  53  54  55  56  57  58  59  60
  JobIph:        8   9  10  10  10  10  10  11  11  11  11  11  11  12  13  13  13  14  14  14
 Root nr:        6   1   1   2   3   4   5   1   2   3   4   5   6   1   1   2   3   1   2   3

   State:       61  62  63  64  65  66  67  68  69  70  71  72  73  74  75  76  77  78  79  80
  JobIph:       14  14  14  15  15  15  15  15  16  16  16  16  16  16  17  18  18  18  18  18
 Root nr:        4   5   6   1   2   3   4   5   1   2   3   4   5   6   1   1   2   3   4   5

   State:       81  82  83  84  85  86  87  88  89  90  91  92  93  94  95  96  97  98  99
  JobIph:       19  19  19  19  19  19  20  21  21  21  21  21  22  22  22  22  22  22  23
 Root nr:        1   2   3   4   5   6   1   1   2   3   4   5   1   2   3   4   5   6   1

  HAMILTONIAN MATRIX FOR THE ORIGINAL STATES:

  Diagonal, with energies
   -149.60895147   -149.60894640   -149.59711807   -149.44751124   -149.44644585
   -149.44644072   -149.44285180   -149.43811557   -149.43811537   -149.37884854
   -149.37417270   -149.31022839   -149.52769865   -149.52769353   -149.51761676
   -149.60895147   -149.60894640   -149.59711807   -149.60304644   -149.44697785
   -149.44230208   -149.44228263   -149.37831640   -149.60306577   -149.52823472
   -149.52355499   -149.52355475   -149.52180319   -149.45959326   -149.60304644
   -149.60304644   -149.44697785   -149.44230208   -149.44228263   -149.37831640
   -149.60306577   -149.52823472   -149.52355499   -149.52355475   -149.52180319
   -149.45959326   -149.60304644   -149.60895147   -149.44644585   -149.44285180
   -149.43811537   -149.37417270   -149.60895673   -149.52770389   -149.52769865
   -149.52235624   -149.51761676   -149.45368101   -149.60895147   -149.44285810
   -149.37891774   -149.37418675   -149.60895147   -149.60894640   -149.59711807
   -149.52769865   -149.52769353   -149.51761676   -149.60306577   -149.44698591
   -149.44232127   -149.44230204   -149.37836446   -149.60304644   -149.52823473
   -149.52355499   -149.52355475   -149.52180319   -149.45959326   -149.60306577
   -149.60306577   -149.44698591   -149.44232127   -149.44230204   -149.37836446
   -149.60304644   -149.52823473   -149.52355499   -149.52355475   -149.52180319
   -149.45959326   -149.60306577   -149.60895673   -149.44645107   -149.44285810
   -149.43811557   -149.37418675   -149.60895147   -149.52770389   -149.52769865
   -149.52235624   -149.51761676   -149.45368101   -149.60895673

      OVERLAP MATRIX FOR THE ORIGINAL STATES:

  Diagonal, with elements
      1.00000000      1.00000000      1.00000000      1.00000000      1.00000000
      1.00000000      1.00000000      1.00000000      1.00000000      1.00000000
      1.00000000      1.00000000      1.00000000      1.00000000      1.00000000
      1.00000000      1.00000000      1.00000000      1.00000000      1.00000000
      1.00000000      1.00000000      1.00000000      1.00000000      1.00000000
      1.00000000      1.00000000      1.00000000      1.00000000      1.00000000
      1.00000000      1.00000000      1.00000000      1.00000000      1.00000000
      1.00000000      1.00000000      1.00000000      1.00000000      1.00000000
      1.00000000      1.00000000      1.00000000      1.00000000      1.00000000
      1.00000000      1.00000000      1.00000000      1.00000000      1.00000000
      1.00000000      1.00000000      1.00000000      1.00000000      1.00000000
      1.00000000      1.00000000      1.00000000      1.00000000      1.00000000
      1.00000000      1.00000000      1.00000000      1.00000000      1.00000000
      1.00000000      1.00000000      1.00000000      1.00000000      1.00000000
      1.00000000      1.00000000      1.00000000      1.00000000      1.00000000
      1.00000000      1.00000000      1.00000000      1.00000000      1.00000000
      1.00000000      1.00000000      1.00000000      1.00000000      1.00000000
      1.00000000      1.00000000      1.00000000      1.00000000      1.00000000
      1.00000000      1.00000000      1.00000000      1.00000000      1.00000000
      1.00000000      1.00000000      1.00000000      1.00000000

::    RASSI State    1     Total energy:    -149.60895147398088
::    RASSI State    2     Total energy:    -149.60894640044194
::    RASSI State    3     Total energy:    -149.59711806580233
::    RASSI State    4     Total energy:    -149.44751123921532
::    RASSI State    5     Total energy:    -149.44644585276123
::    RASSI State    6     Total energy:    -149.44644071787511
::    RASSI State    7     Total energy:    -149.44285180193074
::    RASSI State    8     Total energy:    -149.43811556856440
::    RASSI State    9     Total energy:    -149.43811536847397
::    RASSI State   10     Total energy:    -149.37884854272386
::    RASSI State   11     Total energy:    -149.37417270324653
::    RASSI State   12     Total energy:    -149.31022839170052
::    RASSI State   13     Total energy:    -149.52769864618298
::    RASSI State   14     Total energy:    -149.52769352714958
::    RASSI State   15     Total energy:    -149.51761676433355
::    RASSI State   16     Total energy:    -149.60895147102136
::    RASSI State   17     Total energy:    -149.60894639757467
::    RASSI State   18     Total energy:    -149.59711806576524
::    RASSI State   19     Total energy:    -149.60304643929391
::    RASSI State   20     Total energy:    -149.44697785001279
::    RASSI State   21     Total energy:    -149.44230208055080
::    RASSI State   22     Total energy:    -149.44228263067711
::    RASSI State   23     Total energy:    -149.37831640089379
::    RASSI State   24     Total energy:    -149.60306576867288
::    RASSI State   25     Total energy:    -149.52823472453562
::    RASSI State   26     Total energy:    -149.52355499451897
::    RASSI State   27     Total energy:    -149.52355474851348
::    RASSI State   28     Total energy:    -149.52180318966592
::    RASSI State   29     Total energy:    -149.45959325787354
::    RASSI State   30     Total energy:    -149.60304644173110
::    RASSI State   31     Total energy:    -149.60304643929393
::    RASSI State   32     Total energy:    -149.44697785001267
::    RASSI State   33     Total energy:    -149.44230208055077
::    RASSI State   34     Total energy:    -149.44228263067694
::    RASSI State   35     Total energy:    -149.37831640089379
::    RASSI State   36     Total energy:    -149.60306576867288
::    RASSI State   37     Total energy:    -149.52823472453562
::    RASSI State   38     Total energy:    -149.52355499451892
::    RASSI State   39     Total energy:    -149.52355474851336
::    RASSI State   40     Total energy:    -149.52180318966589
::    RASSI State   41     Total energy:    -149.45959325787356
::    RASSI State   42     Total energy:    -149.60304644173107
::    RASSI State   43     Total energy:    -149.60895147398091
::    RASSI State   44     Total energy:    -149.44644585276140
::    RASSI State   45     Total energy:    -149.44285180193077
::    RASSI State   46     Total energy:    -149.43811536847389
::    RASSI State   47     Total energy:    -149.37417270324656
::    RASSI State   48     Total energy:    -149.60895672904584
::    RASSI State   49     Total energy:    -149.52770389362871
::    RASSI State   50     Total energy:    -149.52769864618296
::    RASSI State   51     Total energy:    -149.52235623538692
::    RASSI State   52     Total energy:    -149.51761676433361
::    RASSI State   53     Total energy:    -149.45368100946368
::    RASSI State   54     Total energy:    -149.60895147102124
::    RASSI State   55     Total energy:    -149.44285809742104
::    RASSI State   56     Total energy:    -149.37891774162176
::    RASSI State   57     Total energy:    -149.37418674518145
::    RASSI State   58     Total energy:    -149.60895147299428
::    RASSI State   59     Total energy:    -149.60894639948611
::    RASSI State   60     Total energy:    -149.59711806578989
::    RASSI State   61     Total energy:    -149.52769865113243
::    RASSI State   62     Total energy:    -149.52769353202868
::    RASSI State   63     Total energy:    -149.51761676446020
::    RASSI State   64     Total energy:    -149.60306576668589
::    RASSI State   65     Total energy:    -149.44698590726779
::    RASSI State   66     Total energy:    -149.44232127425968
::    RASSI State   67     Total energy:    -149.44230204349211
::    RASSI State   68     Total energy:    -149.37836446042982
::    RASSI State   69     Total energy:    -149.60304644010625
::    RASSI State   70     Total energy:    -149.52823472546984
::    RASSI State   71     Total energy:    -149.52355499451747
::    RASSI State   72     Total energy:    -149.52355475012098
::    RASSI State   73     Total energy:    -149.52180319050515
::    RASSI State   74     Total energy:    -149.45959325891479
::    RASSI State   75     Total energy:    -149.60306577264672
::    RASSI State   76     Total energy:    -149.60306576668600
::    RASSI State   77     Total energy:    -149.44698590726782
::    RASSI State   78     Total energy:    -149.44232127425968
::    RASSI State   79     Total energy:    -149.44230204349228
::    RASSI State   80     Total energy:    -149.37836446042985
::    RASSI State   81     Total energy:    -149.60304644010623
::    RASSI State   82     Total energy:    -149.52823472546979
::    RASSI State   83     Total energy:    -149.52355499451753
::    RASSI State   84     Total energy:    -149.52355475012104
::    RASSI State   85     Total energy:    -149.52180319050515
::    RASSI State   86     Total energy:    -149.45959325891479
::    RASSI State   87     Total energy:    -149.60306577264672
::    RASSI State   88     Total energy:    -149.60895672989071
::    RASSI State   89     Total energy:    -149.44645107278095
::    RASSI State   90     Total energy:    -149.44285809742104
::    RASSI State   91     Total energy:    -149.43811556846504
::    RASSI State   92     Total energy:    -149.37418674518139
::    RASSI State   93     Total energy:    -149.60895147299436
::    RASSI State   94     Total energy:    -149.52770388888112
::    RASSI State   95     Total energy:    -149.52769865113245
::    RASSI State   96     Total energy:    -149.52235623546164
::    RASSI State   97     Total energy:    -149.51761676446023
::    RASSI State   98     Total energy:    -149.45368100960403
::    RASSI State   99     Total energy:    -149.60895672735629



      ****************************************************************************************************
      *                                                                                                  *
      *                                         Spin-free section                                        *
      *                                                                                                  *
      *                 Note: index according to input order, order according to energy.                 *
      *                                                                                                  *
      ****************************************************************************************************



  SPIN-FREE ENERGIES:
  (Shifted by EMIN (a.u.) =       -149.6089567299)

 SF State       Relative EMIN(au)   Rel lowest level(eV)    D:o, cm**(-1)      L_eff   Abs_M

    88             0.0000000000        0.0000000000              0.0000         1.0     0.0
    48             0.0000000008        0.0000000230              0.0002         1.0     0.0
    99             0.0000000025        0.0000000690              0.0006         1.0     0.0
    43             0.0000052559        0.0001430206              1.1535         2.0     2.0
     1             0.0000052559        0.0001430206              1.1535         2.0     2.0
    93             0.0000052569        0.0001430474              1.1538         2.0     2.0
    58             0.0000052569        0.0001430474              1.1538         2.0     2.0
    16             0.0000052589        0.0001431011              1.1542         2.0     2.0
    54             0.0000052589        0.0001431011              1.1542         2.0     2.0
     2             0.0000103294        0.0002810786              2.2671         1.0     0.0
    59             0.0000103304        0.0002811046              2.2673         1.0     0.0
    17             0.0000103323        0.0002811566              2.2677         1.0     0.0
    75             0.0058909572        0.1603011129           1292.9157         2.0     1.0
    87             0.0058909572        0.1603011129           1292.9157         2.0     1.0
    24             0.0058909612        0.1603012211           1292.9165         2.0     1.0
    36             0.0058909612        0.1603012211           1292.9165         2.0     1.0
    76             0.0058909632        0.1603012751           1292.9170         2.0     1.0
    64             0.0058909632        0.1603012751           1292.9170         2.0     1.0
    30             0.0059102882        0.1608271339           1297.1583         1.0     1.0
    42             0.0059102882        0.1608271339           1297.1583         1.0     1.0
    69             0.0059102898        0.1608271782           1297.1587         1.0     1.0
    81             0.0059102898        0.1608271782           1297.1587         1.0     1.0
    31             0.0059102906        0.1608272003           1297.1588         1.0     1.0
    19             0.0059102906        0.1608272003           1297.1588         1.0     1.0
     3             0.0118386641        0.3221464611           2598.2864         1.6     0.0
    60             0.0118386641        0.3221464615           2598.2864         1.6     0.0
    18             0.0118386641        0.3221464622           2598.2864         1.6     0.0
    70             0.0807220044        2.1965576408          17716.4322         2.4     1.0
    82             0.0807220044        2.1965576408          17716.4322         2.4     1.0
    37             0.0807220054        2.1965576663          17716.4324         2.4     1.0
    25             0.0807220054        2.1965576663          17716.4324         2.4     1.0
    49             0.0812528363        2.2110023111          17832.9363         2.0     0.0
    94             0.0812528410        2.2110024403          17832.9373         2.0     0.0
    95             0.0812580788        2.2111449667          17834.0869         2.7     2.0
    61             0.0812580788        2.2111449667          17834.0869         2.7     2.0
    13             0.0812580837        2.2111451014          17834.0880         2.7     2.0
    50             0.0812580837        2.2111451014          17834.0880         2.7     2.0
    62             0.0812631979        2.2112842646          17835.2104         2.0     0.0
    14             0.0812632027        2.2112843974          17835.2115         2.0     0.0
    26             0.0854017354        2.3238996073          18743.5144         1.6     1.0
    38             0.0854017354        2.3238996073          18743.5144         1.6     1.0
    83             0.0854017354        2.3238996073          18743.5144         1.6     1.0
    71             0.0854017354        2.3238996073          18743.5144         1.6     1.0
    84             0.0854019798        2.3239062577          18743.5680         3.0     3.0
    72             0.0854019798        2.3239062577          18743.5680         3.0     3.0
    27             0.0854019814        2.3239063014          18743.5684         3.0     3.0
    39             0.0854019814        2.3239063014          18743.5684         3.0     3.0
    96             0.0866004944        2.3565195030          19006.6116         2.4     0.0
    51             0.0866004945        2.3565195050          19006.6116         2.4     0.0
    73             0.0871535394        2.3715686229          19127.9909         2.4     1.0
    85             0.0871535394        2.3715686229          19127.9909         2.4     1.0
    28             0.0871535402        2.3715686458          19127.9911         2.4     1.0
    40             0.0871535402        2.3715686458          19127.9911         2.4     1.0
    97             0.0913399654        2.4854870790          20046.8052         2.4     2.0
    63             0.0913399654        2.4854870790          20046.8052         2.4     2.0
    52             0.0913399656        2.4854870825          20046.8053         2.4     2.0
    15             0.0913399656        2.4854870825          20046.8053         2.4     2.0
    74             0.1493634710        4.0643870998          32781.4927         1.0     1.0
    86             0.1493634710        4.0643870998          32781.4927         1.0     1.0
    41             0.1493634720        4.0643871281          32781.4930         1.0     1.0
    29             0.1493634720        4.0643871281          32781.4930         1.0     1.0
    98             0.1552757203        4.2252675993          34079.0815         1.0     0.0
    53             0.1552757204        4.2252676032          34079.0815         1.0     0.0
     4             0.1614454907        4.3931556044          35433.1896         3.0     0.0
    77             0.1619708226        4.4074506150          35548.4866         3.8     1.0
    65             0.1619708226        4.4074506150          35548.4866         3.8     1.0
    20             0.1619788799        4.4076698640          35550.2549         2.0     1.0
    32             0.1619788799        4.4076698641          35550.2549         2.0     1.0
    89             0.1625056571        4.4220042028          35665.8692         2.7     0.0
    44             0.1625108771        4.4221462467          35667.0149         3.3     2.0
     5             0.1625108771        4.4221462467          35667.0149         3.3     2.0
     6             0.1625160120        4.4222859741          35668.1418         2.7     0.0
    90             0.1660986325        4.5197740431          36454.4361         3.0     2.0
    55             0.1660986325        4.5197740431          36454.4361         3.0     2.0
    45             0.1661049280        4.5199453521          36455.8178         3.0     2.0
     7             0.1661049280        4.5199453521          36455.8178         3.0     2.0
    66             0.1666354556        4.5343817455          36572.2552         4.0     3.0
    78             0.1666354556        4.5343817455          36572.2552         4.0     3.0
    21             0.1666546493        4.5349040329          36576.4677         2.4     1.0
    33             0.1666546493        4.5349040329          36576.4677         2.4     1.0
    79             0.1666546864        4.5349050413          36576.4759         2.4     1.0
    67             0.1666546864        4.5349050413          36576.4759         2.4     1.0
    22             0.1666740992        4.5354332909          36580.7365         3.0     3.0
    34             0.1666740992        4.5354332909          36580.7365         3.0     3.0
     8             0.1708411613        4.6488248276          37495.3009         1.6     0.0
    91             0.1708411614        4.6488248303          37495.3009         1.6     0.0
     9             0.1708413614        4.6488302723          37495.3448         4.0     4.0
    46             0.1708413614        4.6488302723          37495.3448         4.0     4.0
    56             0.2300389883        6.2596797614          50487.7221         2.0     0.0
    10             0.2301081872        6.2615627594          50502.9096         2.0     0.0
    80             0.2305922695        6.2747353096          50609.1533         2.0     1.0
    68             0.2305922695        6.2747353096          50609.1533         2.0     1.0
    35             0.2306403290        6.2760430762          50619.7012         2.0     1.0
    23             0.2306403290        6.2760430762          50619.7012         2.0     1.0
    57             0.2347699847        6.3884167329          51526.0558         2.0     2.0
    92             0.2347699847        6.3884167329          51526.0558         2.0     2.0
    47             0.2347840266        6.3887988334          51529.1377         2.0     2.0
    11             0.2347840266        6.3887988334          51529.1377         2.0     2.0
    12             0.2987283382        8.1288121931          65563.2919         0.0     0.0

++ Dipole transition strengths (spin-free states):
   -----------------------------------------------
     for osc. strength at least  1.00000000E-05

  ( Max oscillator strength is only    5.2665558995467828E-009 )
--

++ Velocity transition strengths (spin-free states):
   -------------------------------------------------
     for osc. strength at least  1.00000000E-05

      From   To        Osc. strength     Einstein coefficients Ax, Ay, Az (sec-1)    Total A (sec-1)
     -----------------------------------------------------------------------------------------------
        75   30       1.09720271E-04  0.00000000E+00  0.00000000E+00  1.31735434E-03  1.31735434E-03
        87   42       1.09720271E-04  0.00000000E+00  0.00000000E+00  1.31735434E-03  1.31735434E-03
        24   69       1.09733428E-04  0.00000000E+00  0.00000000E+00  1.31719213E-03  1.31719213E-03
        36   81       1.09733428E-04  0.00000000E+00  0.00000000E+00  1.31719213E-03  1.31719213E-03
        76   31       1.09740009E-04  0.00000000E+00  0.00000000E+00  1.31711103E-03  1.31711103E-03
        64   19       1.09740009E-04  0.00000000E+00  0.00000000E+00  1.31711102E-03  1.31711102E-03
        96   73       1.16731777E-05  0.00000000E+00  1.14715170E-01  0.00000000E+00  1.14715170E-01
        96   85       1.16731777E-05  1.14715170E-01  0.00000000E+00  0.00000000E+00  1.14715170E-01
        51   28       1.16729179E-05  0.00000000E+00  1.14712934E-01  0.00000000E+00  1.14712934E-01
        51   40       1.16729179E-05  1.14712934E-01  0.00000000E+00  0.00000000E+00  1.14712934E-01
        77   32       1.73571559E-04  0.00000000E+00  0.00000000E+00  3.62045938E-04  3.62045938E-04
        65   20       1.73571562E-04  0.00000000E+00  0.00000000E+00  3.62045932E-04  3.62045932E-04
        66   22       1.17334851E-04  0.00000000E+00  0.00000000E+00  5.62979618E-03  5.62979618E-03
        78   34       1.17334850E-04  0.00000000E+00  0.00000000E+00  5.62979620E-03  5.62979620E-03
        56   10       6.33741725E-05  0.00000000E+00  0.00000000E+00  9.75037996E-03  9.75037996E-03
        80   35       2.01312196E-05  0.00000000E+00  0.00000000E+00  1.49396394E-03  1.49396394E-03
        68   23       2.01312196E-05  0.00000000E+00  0.00000000E+00  1.49396394E-03  1.49396394E-03
     -----------------------------------------------------------------------------------------------
--

++ Length and velocity gauge comparison (spin-free states):
   --------------------------------------------------------

 --------------------------------------------------
 A comparison between the dipole oscillator strengths in 
 length and velocity gauge will be performed

     All dipole oscillator differences above the tolerance of   1.00000000E-01  will be printed 

 Due to basis set deficiency these oscillator may be problematic 

 The tolerance is defined as ABS(1-O_l/O_v) 
 O_l : dipole oscillator strength in length gauge
 O_p : dipole oscillator strength in velocity gauge
 --------------------------------------------------

  Problematic transitions have been found

      From   To       Difference (%) Osc. st. (len.) Osc. st. (vel.)
     ---------------------------------------------------------------
        75   30      --------------- below threshold  1.09720271E-04
        87   42      --------------- below threshold  1.09720271E-04
        24   69      --------------- below threshold  1.09733428E-04
        36   81      --------------- below threshold  1.09733428E-04
        76   31      --------------- below threshold  1.09740009E-04
        64   19      --------------- below threshold  1.09740009E-04
        96   73      --------------- below threshold  1.16731777E-05
        96   85      --------------- below threshold  1.16731777E-05
        51   28      --------------- below threshold  1.16729179E-05
        51   40      --------------- below threshold  1.16729179E-05
        77   32      --------------- below threshold  1.73571559E-04
        65   20      --------------- below threshold  1.73571562E-04
        66   22      --------------- below threshold  1.17334851E-04
        78   34      --------------- below threshold  1.17334850E-04
        56   10      --------------- below threshold  6.33741725E-05
        80   35      --------------- below threshold  2.01312196E-05
        68   23      --------------- below threshold  2.01312196E-05
     ---------------------------------------------------------------

 Number of problematic transitions =                    17

--

 Electric-dipole - electric-octupole not included
 Electric-dipole - magnetic-quadrupole not included


      ****************************************************************************************************
      *                                                                                                  *
      *                                    Special properties section                                    *
      *                                                                                                  *
      ****************************************************************************************************


++ I/O STATISTICS
 
  I. General I/O information
  - - - - - - - - - - - - - - - - - - - - - - - - - - - - - - - - - - - - - - - - - - -
  Unit  Name          Flsize      Write/Read            MBytes           Write/Read
                      (MBytes)       Calls              In/Out           Time, sec.
  - - - - - - - - - - - - - - - - - - - - - - - - - - - - - - - - - - - - - - - - - - -
   1  RUNFILE           0.99 .     266/  262973 .      2.5/   1902.4 .       0/       0
   2  ANNI              0.00 .       0/       0 .      0.0/      0.0 .       0/       0
   3  ONEINT            1.54 .       0/  126040 .      0.0/ 152831.4 .       0/      18
   4  JOBIPH            1.52 .       0/     651 .      0.0/      1.5 .       0/       0
   5  JOBIPH01          1.22 .       0/     219 .      0.0/      1.3 .       0/       0
   6  JOBIPH02          1.22 .       0/     219 .      0.0/      1.3 .       0/       0
   7  JOBIPH03          1.28 .       0/     315 .      0.0/      1.4 .       0/       0
   8  JOBIPH04          1.32 .       0/     363 .      0.0/      1.4 .       0/       0
   9  JOBIPH05          1.15 .       0/     123 .      0.0/      1.3 .       0/       0
  10  JOBIPH06          1.28 .       0/     315 .      0.0/      1.4 .       0/       0
  11  JOBIPH07          1.32 .       0/     363 .      0.0/      1.4 .       0/       0
  12  JOBIPH08          1.15 .       0/     123 .      0.0/      1.3 .       0/       0
  13  JOBIPH09          1.28 .       0/     315 .      0.0/      1.4 .       0/       0
  14  JOBIPH10          1.32 .       0/     363 .      0.0/      1.4 .       0/       0
  15  JOBIPH11          1.15 .       0/     123 .      0.0/      1.3 .       0/       0
  16  JOBIPH12          1.22 .       0/     219 .      0.0/      1.3 .       0/       0
  17  JOBIPH13          1.32 .       0/     363 .      0.0/      1.4 .       0/       0
  18  JOBIPH14          1.28 .       0/     315 .      0.0/      1.4 .       0/       0
  19  JOBIPH15          1.32 .       0/     363 .      0.0/      1.4 .       0/       0
  20  JOBIPH16          1.15 .       0/     123 .      0.0/      1.3 .       0/       0
  21  JOBIPH17          1.28 .       0/     315 .      0.0/      1.4 .       0/       0
  22  JOBIPH18          1.32 .       0/     363 .      0.0/      1.4 .       0/       0
  23  JOBIPH19          1.15 .       0/     123 .      0.0/      1.3 .       0/       0
  24  JOBIPH20          1.28 .       0/     315 .      0.0/      1.4 .       0/       0
  25  JOBIPH21          1.32 .       0/     363 .      0.0/      1.4 .       0/       0
  26  JOBIPH22          1.15 .       0/     123 .      0.0/      1.3 .       0/       0
  - - - - - - - - - - - - - - - - - - - - - - - - - - - - - - - - - - - - - - - - - - -
   *  TOTAL            31.50 .     266/  395490 .      2.5/ 154764.9 .       0/      18
  - - - - - - - - - - - - - - - - - - - - - - - - - - - - - - - - - - - - - - - - - - -
 
  II. I/O Access Patterns
  - - - - - - - - - - - - - - - - - - - -
  Unit  Name               % of random
                         Write/Read calls
  - - - - - - - - - - - - - - - - - - - -
   1  RUNFILE             28.6/  11.1
   2  ANNI                 0.0/   0.0
   3  ONEINT               0.0/  99.3
   4  JOBIPH               0.0/  51.9
   5  JOBIPH01             0.0/  55.7
   6  JOBIPH02             0.0/  55.7
   7  JOBIPH03             0.0/  54.0
   8  JOBIPH04             0.0/  53.4
   9  JOBIPH05             0.0/  60.2
  10  JOBIPH06             0.0/  54.0
  11  JOBIPH07             0.0/  53.4
  12  JOBIPH08             0.0/  60.2
  13  JOBIPH09             0.0/  54.0
  14  JOBIPH10             0.0/  53.4
  15  JOBIPH11             0.0/  60.2
  16  JOBIPH12             0.0/  55.7
  17  JOBIPH13             0.0/  53.4
  18  JOBIPH14             0.0/  54.0
  19  JOBIPH15             0.0/  53.4
  20  JOBIPH16             0.0/  60.2
  21  JOBIPH17             0.0/  54.0
  22  JOBIPH18             0.0/  53.4
  23  JOBIPH19             0.0/  60.2
  24  JOBIPH20             0.0/  54.0
  25  JOBIPH21             0.0/  53.4
  26  JOBIPH22             0.0/  60.2
  - - - - - - - - - - - - - - - - - - - -
--
--- Stop Module: rassi at Thu Apr 17 11:11:13 2025 /rc=_RC_ALL_IS_WELL_ ---
--- Module rassi spent 40 seconds ---

.##################.
.# Happy landing! #.
.##################.

    Timing: Wall=40.77 User=19.68 System=19.62
